formula,space_group,formation_energy_value,formation_energy_value_per_atom
CaW3,R-3m,0.537200698338509,1.1451489953134697
CaW4,Im-3m,2.9779784702245284,4.8891046518148
Ce12Ga8,P4_2/mnm,-2.1136791807155006,-1.0672893822593077
Ce2Br6,P6_3/m,-3.87227581155608,-4.098242250737811
Ce4Cu4,Pnma,-0.4061482510478776,-0.5267820444581126
Ce4Fe34,P6_3/mmc,0.0093487700932858,-0.2218333947724473
Ce4Ge4,Pnma,-1.8880347372258364,-2.0537017908370503
Ce4Sb8,Cmce,-2.811800026582045,-2.0885863615189417
CeAs,Fm-3m,-0.90799682408399,-3.4114853018281583
CeBi,P-6m2,-0.3869712538628447,-1.2640489388961769
CeCu5,P6/mmm,-0.3408306268181054,-0.5277459470189816
CeGa2,P6/mmm,-0.6182919775843645,-1.5631936097324897
CeGa3,Fm-3m,-0.4050824652388652,-0.796687687275623
CeIn,P-6m2,-0.2611925705157335,-0.7456449799759819
CeNi3,Pm-3m,-0.1497320300966616,-0.2704670552612188
CePt,P-6m2,-0.4315027103733477,-1.447587856121275
CeSb,P-6m2,-0.5975558855911506,-2.1319854116801595
CeSm,Fm-3m,-0.0224168847514632,0.2384825168310925
CeU,Fm-3m,0.3652292727107304,1.8361880845863296
CeU3,I4/mmm,0.2488193603873583,0.5508589960295295
CeV,Pm-3m,0.131729283920507,0.8738046713125648
Cr10Nb6,I4/mcm,1.2551753533750707,0.465173853503495
Cr12P17,I-43m,-0.6729234060541401,-0.4055722504600433
Cr12Ta12,Pbcm,1.0836031046313868,0.1662938237630778
Cr12Ta4,Pnma,0.8218238643460565,0.2419135188243732
Cr12W18,P4_2/mnm,2.1948112617932956,0.38742620050611676
Cr14Ta2,R-3m,0.0775003971679188,-0.1415578908713926
Cr16Nb4,I23,2.2895111210996477,0.7475104101988539
Cr18Ta6,Pmmn,1.4333993734687571,0.2864359163095904
Cr24P5,I-43m,0.7941853341629908,0.0114464853700964
Cr26Nb2,Fm-3c,2.1790438853616414,0.4286490662164692
Cr2As,Fmmm,0.6538790566714348,1.932356314583323
Cr2As,P-3m1,0.0177564034908965,0.184479313530885
Cr2As2,P4/nmm,-0.09939383328203663,-0.16673119231857014
Cr2As2,R-3m,0.21025427371457955,0.0794290216590052
Cr2As4,C2/m,-0.7531760679127085,-1.0942476345272938
Cr2As4,I4_1/amd,-0.01628030281657415,-0.08186177344798104
Cr2Bi2,P6_3mc,0.5501511418679776,1.1718369881306685
Cr2K3,R-3m,1.0660392511948955,1.7370383907156792
Cr2Na,Immm,0.5234276859252823,1.5739145116654
Cr2Na6,Cmcm,0.9186942504049752,0.8383212851011631
Cr2Nb2,Fd-3m,-0.023551642107627,-0.0104372515977349
Cr2Nb4,Fd-3m,0.8403694775482176,1.0950484038345178
Cr2Nb4,Pnnm,0.7718427790421954,1.0009028489813276
Cr2Rh,P-3m1,-0.0820444237556822,-0.0897438567305814
Cr2Rh2,I4_1/amd,-0.1226511369608594,-0.2146593387264878
Cr2Rh2,P-3m1,-0.0977596160676542,-0.1633634329688663
Cr2Rh2,P4/nmm,-0.1249167398113224,-0.2193282438850022
Cr2Rh2,R-3m,1.404349128828346,1.0175791684481224
Cr2Rh3,P-3m1,0.1332507902476205,0.1992222262527059
Cr2Sb2,P6_3/mmc,-0.191716136020776,-0.3569869890989807
Cr2Sn2,P4/nmm,0.2539320034791574,0.5613950198962299
Cr2Sr2,P-3m1,0.7880770197284042,1.6621494708588511
Cr2Sr2,P4/nmm,0.51444220388799,1.098248784132004
Cr2Ta2,Imma,-0.1303321041775296,-0.2304881091806568
Cr2Ta2,P4/nmm,-0.0885190503648732,-0.1443206758199305
Cr2Ta4,Pnnm,0.7064743097927197,0.9110962343104811
Cr2Ta6,Cmcm,-0.0341717981962867,-0.1435015460226342
Cr2W2,P-3m1,0.292241684477912,0.6403427786349539
Cr2W2,P4/nmm,-0.0658884085505482,-0.097683940574918
Cr3Br2,R-3m,1.3584030278215815,0.9821779376362382
Cr3Cu2,R-3m,0.5467814373151074,0.8809782086491901
Cr3K,R-3m,1.5439387938590792,3.219813002064768
Cr3Nb,Fm-3m,-0.0731796568966331,-0.1127095868430123
Cr3Nb,Immm,-0.0566200667181745,-0.0785839429812535
Cr3Nb,Pm-3m,2.363604019531266,4.908961300767468
Cr3P,Fm-3m,-0.269622382825485,-0.5175344908434508
Cr3Rh,P4/mmm,-0.0572573923372081,-0.0798973297779513
Cr3Rh,Pm-3m,-0.0124628473191726,0.0124142959181678
Cr3Sn,I4/mmm,0.068349408987107,0.1789504389418462
Cr3Sn,P4/mmm,0.2446922548294167,0.542353946512458
Cr3Sr,P4/mmm,0.8490802407467513,1.7878635840982198
Cr3W,P4/mmm,-0.08301222381747314,-0.13297232724730002
Cr4As,I4/m,-0.1261944979817541,-0.2285051468193321
Cr4Nb16,I-43m,3.076446447735959,1.071850256893386
Cr4Nb2,Fd-3m,-0.2045473654865362,-0.3405128899042373
Cr4Nb2,I4_1/amd,1.132586984781089,0.620916006436702
Cr4Nb2,Pnnm,0.2238613942353278,0.24805742308753
Cr4Nb4,P2_13,0.5572250052436302,0.4658672993919868
Cr4P,Im-3m,0.6545935282255184,1.0587196613663596
Cr4P8,Pa-3,0.3135836337919235,0.0583212325273692
Cr4Rh,I4/mmm,0.5646066356738121,0.9103652340235576
Cr4Rh8,I4_1/amd,-0.36929999248518974,-0.41076935039607004
Cr4Sn8,Fddd,-0.21144507714944574,-0.3023346897850604
Cr4Sr5,I4/mmm,1.5276812892040024,1.274648810113324
Cr4Ta6,Fddd,0.3515918383832803,0.1522520827923242
Cr5Na,Amm2,0.7763012964128739,1.007028192837609
Cr5Nb,Cmmm,-0.034002505100102054,-0.10620945987645505
Cr5Nb,F-43m,0.0522135431035029,0.0122386468080436
Cr5Nb24,I-43m,2.59520931246685,0.5233790518142774
Cr5P24,I-43m,2.7718745761092825,0.5735953192862863
Cr5Rh,P4/mmm,-0.057737341196586,-0.1388176164397927
Cr5Rh4,I4/mmm,-0.056020248021850405,-0.1758657406095637
Cr5Sr4,I4/mmm,1.5683170151397354,1.3118671308407364
Cr6Ge2,Pm-3n,-0.5343100775476552,-0.6588385990186629
Cr6Pb18,Pmmn,4.405993025532022,1.3074119914300537
Cr6Pt2,Pm-3n,-0.1879180098528196,-0.3019199732766658
Cr6Sr2,I4/mmm,2.4087152247706336,2.3736227197918147
Cr6Ta18,Pmmn,1.3047346497417367,0.2422443381750906
Cr6Ta2,Cmcm,-0.0493208807605782,-0.1591109962218877
Cr6Ta2,Pmmn,0.4351669411786067,0.340099995375093
Cr7Nb,Fm-3m,0.7194291155918865,0.6330006536297808
Cr8Nb,I4/mmm,0.4048171319789061,0.2462158887225809
Cr8P4,Pa-3,0.1096463218705659,-0.0817686288309527
Cr8Pb4,Pnma,1.6922359178729487,1.005353462768403
Cr8Rh,I4/mmm,0.4703372942526087,0.3062259010322278
Cr8Rh4,I4_1/amd,0.0964471981083918,-0.0908354513779095
Cr8Sn,I4/mmm,0.5878319756425165,0.413839451302026
Cr8Ta4,Pnma,0.2686044274390283,0.0274238419389599
Cr9Ga12,C2/m,-0.379480715479097,-0.3478701684173495
CrAs2,P-3m1,0.15534555731795918,0.5625336342914687
CrAs3,I4/mmm,0.3891096987317832,0.8399662789993263
CrAs3,R-3m,0.14924938130108226,0.34566734520950176
CrCu,Fm-3m,0.2984581833112305,1.560987262276959
CrEu,Fm-3m,0.2768930043789296,1.4721051573301676
CrGa,Fm-3m,0.103325103215277,0.7567352336651719
CrI2,C2/m,-0.4126718082597784,-0.9982101696396074
CrIr,Fm-3m,0.1731890005004593,1.0446832386405644
CrMo,Fm-3m,0.3128070395716802,1.620126885092583
CrNa,Cmmm,0.2936384164455555,1.541122320478014
CrNa3,Cmmm,0.6086643924581345,1.292419824379302
CrNa3,Immm,0.3360598966671032,0.7306423988376628
CrNb,Fm-3m,0.2783040829015652,1.4779209972882217
CrNb,Pm-3m,-0.09960540170918325,-0.16716718793919783
CrNb2,Fm-3m,1.446334737520204,0.8364375251260179
CrNb2,Fmmm,-0.0744477504023386,-0.0688704440759174
CrNb3,Cmmm,-0.0782388625520076,-0.1231354880010794
CrNb3,I4/mmm,0.0859822100910408,0.2152877325749235
CrNb3,Immm,-0.0783214767541381,-0.1233057375549299
CrNb3,Pm-3m,1.401069049740537,2.9253901356853653
CrNb4,I4/m,-0.0703571780265117,-0.1364504776178483
CrNb5,F-43m,0.4592917452292949,0.5715039265209403
CrNi,R-3m,-0.0830863250910651,-0.011570013697679
CrP,Fm-3m,-0.2370485385324679,-0.6461339862897203
CrP3,Pm-3m,0.2715364926298199,0.5976739688707767
CrP7,Fm-3m,1.0058692931236937,0.928145502651018
CrPd,Fm-3m,0.201161185350933,1.1599721809338708
CrPt3,P4/mmm,-0.1819053319542703,-0.3367690971123427
CrRh2,I4/mmm,-0.1727896761741665,-0.3390849843636372
CrRh2,P4/mmm,0.1688308263542376,0.5995871671025789
CrRh3,I4/mmm,-0.2037787110820801,-0.381845281856327
CrRh4,I4/mmm,0.3502558574687012,0.5569816906054867
CrRh8,I4/mmm,0.7429525733803573,0.5559146333023588
CrSb,F-43m,0.0566088108699781,0.564191391947239
CrSb3,Pm-3m,0.0392759086438762,0.1190364007418881
CrSm,Fm-3m,0.1015636584617093,0.7494753394655423
CrSn,Pm-3m,-0.0152658513773762,0.2679559054280028
CrSn2,I4/mmm,0.0310218815853544,0.220928925808232
CrSn4,I4/m,0.3325889363179471,0.5278556046177464
CrSr2,I4/mmm,0.2083990030571259,0.708308819580704
CrSr2,P-3m1,0.3110971169190892,0.9904928769685254
CrSr3,P4/mmm,0.21106395527656255,0.47305347700506206
CrTa,Cmmm,-0.0216498159589368,-0.006518009567119299
CrTa,F-43m,0.9817568398363431,4.377241330463662
CrTa,P-6m2,0.0916373405824977,0.7085634587783939
CrTa2,I4/mmm,-0.1591737826198626,-0.2781762936900654
CrTa3,Immm,-0.11666910075562215,-0.20233168840977725
CrTh,F-43m,0.6076576030954746,2.8353701628327457
CrTh,Fm-3m,0.2208885283767565,1.241279541222743
CrTh,P-6m2,0.1742037407003104,1.0488655477797575
CrU,Fm-3m,0.125117377521543,0.8465533250429157
CrU,R-3m,0.0592623454711889,0.5751280849209056
CrW3,P4/mmm,-0.09850983975405032,-0.16490947765129516
CrYb,F-43m,0.5471802510440928,2.586109335050621
Cs16Bi16,P2_1/c,-35.0877321944048,-9.256587439672057
Cs2Fe2,P6_3/mmc,1.3015684949972144,2.7203415530438035
Cs2Ni6,P6_3/mmc,0.951895158843549,0.8725311406909317
Cs3Fe,Fm-3m,0.5575057808921717,1.186993268531734
Cs3Sm,Pm-3m,-1.2854204284858353,-2.610869046113373
Cs8Sb8,P2_12_12_1,-2.284853706848714,-1.3586299011121084
CsBr,F-43m,-0.9577142753210668,-3.6163985896990014
CsBr,Fm-3m,-1.0030840536008248,-3.8033926975213137
CsBr,Pm-3m,-0.9754471110502856,-3.689485475332391
CsCu,Fm-3m,0.0645739725731403,0.5970202565089988
CsCu,Pm-3m,0.0518763434031189,0.5446862595591822
CsI,P-6m2,-0.8559206380733191,-3.1968503551504766
CsIr,P-6m2,0.5448690747090378,2.5765836910386803
CsIr,R-3m,0.5433266332346478,2.5702264312435545
CsMn,Fm-3m,0.4652762396625496,2.2485373186982027
CsNi,Amm2,0.38709306340515925,1.9263009348036864
CsP,P-6m2,0.1240362681105213,0.8420974714452687
CsSb,P-6m2,-0.1985619390989849,-0.4875092894749753
CsSm,P-6m2,0.0007295166516567,0.3338817196436964
CsSr,P4/mmm,-0.0584905237612162,0.0898029729078537
CsV,P-6m2,-0.1913271996695136,-0.4576909016354106
CsW,P-6m2,0.9095388812180933,4.079590928530946
CsYb,F-43m,0.15904464997102988,0.9863864977645637
CsYb,P-6m2,-0.0480410296264873,0.13287115412905
CsYb,R-3m,-0.0487471552262284,0.1299608175230411
Cu12Ge12,Pbcm,0.7039860868073304,0.0359094058868159
Cu12Ni17,I-43m,0.6203595647774259,-0.0379626692595334
Cu12Pb12,Pbcm,1.2262217504222876,0.2152780584961103
Cu16In4,I-43m,0.5493415606007263,0.0302896814164548
Cu16Ir8,Fd-3m,2.0902124040840064,0.5120269215316058
Cu16Mn8,Fd-3m,1.647149879351969,0.3598513164939309
Cu16Ni4,I-43m,1.4639039627865258,0.4072317493058714
Cu17In12,I-43m,1.4649544123189189,0.2021094303438512
Cu17Nb12,I-43m,2.240896300208216,0.4226672501530066
Cu18As6,P-3c1,-0.5019040187855269,-0.3782692848939558
Cu24As8,I-43d,-0.0266042477874884,-0.2249360461017961
Cu24In5,I-43m,0.1849622946996664,-0.161722288553226
Cu2Br2,Imma,-0.1380250692890799,-0.2463416046360702
Cu2Fe,Fmmm,-0.0606296847145493,-0.0309024844474396
Cu2Fe,I4/mmm,-0.0738088332932961,-0.0671148887362501
Cu2Fe2,Fd-3m,0.3366119276797858,0.074139968528525
Cu2Fe2,Imma,0.0361069169912724,0.112505811556274
Cu2Ga2,Cmcm,-0.13631090670432,-0.2428090956030409
Cu2Ga2,I4_1/amd,-0.1552749836876292,-0.2818898536607639
Cu2Ga2,P4/nmm,-0.1566132967302227,-0.2846478201185634
Cu2Ga2,Pmma,-0.1827594672267149,-0.338529280534945
Cu2Ge,I4/mmm,-0.07682048455685865,-0.07539001610744545
Cu2Ge2,Cmcm,-0.037886875918992,-0.0399789901582734
Cu2Ge2,P4/nmm,0.012147783670321932,0.06313134986151826
Cu2Ge2,Pmmn,0.011100685377961,0.0609735124375072
Cu2Ge4,Cmcm,0.1912271355929888,0.203222775365
Cu2Ge4,I4_1/amd,0.1137687747449493,0.0968064366380373
Cu2Ge4,Pnnm,0.10659923350301184,0.08695654669761195
Cu2Ge6,I4/mmm,0.38318794737443485,0.2865414045000244
Cu2I2,P6_3mc,-0.3573600205677653,-0.6983423095514237
Cu2In2,R-3m,0.0496407606390717,0.14039606266927082
Cu2In3,P-3m1,-0.0845310056547705,-0.1598177705804059
Cu2In6,Pm-3n,0.2218524312718845,0.1203030403425974
Cu2Ir2,Fd-3m,0.0809691466244417,0.2049569202375448
Cu2K2,P-3m1,0.364715531691151,0.7896953092614535
Cu2K2,Pmma,0.2763644974401283,0.6076234163476697
Cu2K2,R-3m,0.18004674526441422,0.4091338841254703
Cu2K3,P-3m1,-1.528082881121124,-4.063030061252953
Cu2K3,R-3m,0.312969715419945,0.4955109130887815
Cu2K4,Fd-3m,0.7977387593743275,1.0364800982868905
Cu2Mn,I4/mmm,-0.0413849923870447,0.0219762409735033
Cu2Mn,Immm,0.5128942341939094,0.6451458234035422
Cu2Mn2,Cmcm,0.10717968330686356,0.258971025092231
Cu2Na,Immm,-0.0166865912583169,0.0898401459607368
Cu2Ni2,Cmcm,-0.0695199088008557,-0.1051676574356826
Cu2Ni2,Pmmn,-0.1247545973987665,-0.2189941043219972
Cu2Ni26,Fm-3c,1.5102832549187666,0.2317680111272597
Cu2P,P-3m1,-0.06797464750154915,-0.05108427087619535
Cu2Pb,I4/mmm,0.0297588931916347,0.2174586070655471
Cu2Pt6,I4/mmm,-0.3435568756498547,-0.4622885708083497
Cu2Rh6,Pmmn,-0.0227529081011997,-0.1317356456446039
Cu2Sb2,P4/nmm,-0.059268405280857445,-0.08404158158471636
Cu2Sb6,Cmcm,0.3265384131397319,0.2281703394738264
Cu2Sn2,P-3m1,0.0287251036058669,0.0972935308216935
Cu2Sn2,P4/nmm,-0.0916836025979871,-0.1508421163462581
Cu2Sn2,R-3m,0.0097851072770893,0.0582623976539373
Cu2Ta2,P4/nmm,-0.0970802812844408,-0.1619634745988214
Cu2V,I4/mmm,-0.0836957224852023,-0.0942811374841661
Cu2W,Immm,0.6690156652164101,0.8596335934045399
Cu2W2,Cmme,0.0510564174508223,0.143313417487092
Cu3Br,I4/mmm,0.2268001356385246,0.505482255796658
Cu3Br,Pmm2,0.0197286927493905,0.0787539226783989
Cu3Fe,P-6m2,-0.0702342739984409,-0.1066398057230077
Cu3Ga,Imm2,-0.2126532621880338,-0.4001337640718297
Cu3Ge,Cmmm,-0.0845378433306694,-0.1361162908125102
Cu3Ge4,I4/mmm,0.2123396656710719,0.162669938996577
Cu3In,R-3m,0.059980700966257045,0.16170438717215468
Cu3In2,P-3m1,0.08508888272398715,0.11982141567020815
Cu3In2,R-3m,0.0995846156573299,0.1437194090030102
Cu3K,Pm-3m,0.5321640821423885,1.1347696460225216
Cu3K,R-3m,0.4849710173048847,1.0375152027643453
Cu3Mo,Pmmm,0.0600068977293824,0.1617583728927622
Cu3Na,Pmmm,0.0324714622630258,0.1050139453932408
Cu3Na5,Cmmm,0.3403695788622953,0.2424218224681086
Cu3Nb,R-3m,0.0968085434895612,0.2375984053575854
Cu3Nb2,R-3m,0.215430370122768,0.3347053412479729
Cu3P2,P-3m1,-0.0786942854923385,-0.1501952216435121
Cu3Rh,R-3m,-0.1196921294093055,-0.2085614802166837
Cu3Sb,Fm-3m,-0.028148680828664,-0.0199107291730975
Cu3Sn,P4/mmm,-0.0803834008458815,-0.12755490595019303
Cu3Sn,R-3m,0.0082646854556295,0.055129145378994
Cu3Sn6,P-31m,-0.040082063051666,-0.1612679337198502
Cu3Ta,Immm,0.0345563185795313,0.1093103720193389
Cu3Ta,P4/mmm,-0.0727532147247987,-0.1118307840751404
Cu3W,Cmmm,0.0302318103984931,0.1003985194630272
Cu44Ni2,Fd-3m,1.0546124653696145,-0.0402365766033403
Cu4As2,P4/nmm,-0.3438240299514526,-0.5318584404709096
Cu4Fe,I4/m,-0.0181137808619144,-0.0503208308546494
Cu4Fe8,Pa-3,2.3151580982720854,1.4332549638080454
Cu4Ga5,I4/mmm,-0.0122331035030437,-0.1357610309997016
Cu4Ge2,I4_1/amd,0.2241286874065567,0.2484246443963401
Cu4Ge2,Pnnm,0.0235405185162174,-0.0271538508306968
Cu4In16,I-43m,0.6455732257315056,0.0699521065983161
Cu4Ir,I4/mmm,0.3618865744427386,0.5761563537963295
Cu4K16,I-43m,1.5702844274292005,0.4510770596199731
Cu4K2,Fd-3m,0.3294347453019705,0.3930996027134208
Cu4K8,Pa-3,0.7980455466264941,0.3911107626186249
Cu4Mn,I4/m,-0.1008104797584069,-0.186656479970212
Cu4Mn8,Pnma,0.8134129415169259,0.4016670271852058
Cu4Nb2,Fd-3m,-0.0013837932430976999,-0.0613961711390129
Cu4Nb4,P2_13,0.3959155007447027,0.2996557373085226
Cu4Ni2,Fd-3m,0.1411400971726206,0.134410587913357
Cu4Pb,I4/m,0.0727182628688961,0.0994269318466557
Cu4Pd6,Fdd2,-0.2472290355876959,-0.341362738876478
Cu4Pd8,I4_1/amd,-0.3574399102800778,-0.4026223504373125
Cu4Pt4,P-1,-0.3546897692597217,-0.4737597835130995
Cu4Pt7,P-1,-0.4186917713030274,-0.4619721975006402
Cu4Pt7,P1,-0.3925139098760405,-0.4423551908105302
Cu4Sn5,I4/mmm,0.2846706557156088,0.1361735556556645
Cu4Ta4,P2_13,0.412634960723258,0.3168832873457003
Cu4V,I4/mmm,-0.097725784781486,-0.1815709820287717
Cu4V2,Cmcm,0.0312295071070328,-0.0165903170121435
Cu4W8,Pa-3,3.2065157319302955,2.0455517825874017
Cu5Br,Cmmm,0.1802268205951769,0.1881099685085913
Cu5Br3,Cmmm,0.2955645480853128,0.1962552052078746
Cu5Ge4,I4/mmm,0.1365165585999857,0.0004790017488343
Cu5Mn,Amm2,0.1093267504037152,0.0907037517663866
Cu5Mn,F-43m,0.0339675141752406,-0.0128287000037635
Cu5P4,I4/mmm,0.1270624378628993,-0.0081800412407027
Cu5Pb4,I4/mmm,0.3147163977443992,0.1636924946574969
Cu5Pt3,R-3m,-0.3772117973918317,-0.4969662367766803
Cu5Pt5,P-1,-0.4173653106728454,-0.4816079954064313
Cu5Pt5,P1,-0.3929209874499441,-0.4614582632027544
Cu5Pt7,P1,-0.42127016806807444,-0.44646902017979995
Cu5V,F-43m,0.1179550657662371,0.1025577817278847
Cu5W,Cmmm,0.2680604045748105,0.3087803302622689
Cu5W,F-43m,0.3609440310187438,0.4363887039178605
Cu6Fe2,Pm-3n,0.3241630680158034,0.2257228096474726
Cu6Ge7,R-3m,-4.422300748884807,-5.295025106075584
Cu6In6,P-3m1,0.4687395617261853,0.1649018882614914
Cu6In7,R-3m,0.9918124482769304,0.4642993532122104
Cu6Ir2,I4/mmm,0.0602396961262255,-0.0462209673070556
Cu6Ni2,Pm-3n,0.042449376086587345,-0.06455191992474629
Cu6P6,P-3m1,0.2354512912541315,0.0046500875534615
Cu6Pt4,P-1,-0.3946983224891169,-0.4629233405848924
Cu6Pt4,P1,-0.4058751804593315,-0.4721365510683538
Cu6Pt5,P-1,-0.4381662195131906,-0.476565841136905
Cu6Pt5,P1,-0.43071721251597406,-0.4709837495475429
Cu6Pt6,P-1,-0.4584137659558571,-0.4719839268411923
Cu6Pt6,P1,-0.3910323980013757,-0.4256979068581624
Cu6Rh2,Cmcm,-0.0678582896333724,-0.1782117410620497
Cu7As,Fm-3m,-0.0975875092083218,-0.2088444061391871
Cu7In,Fm-3m,-0.0657660886566187,-0.1760559598908226
Cu7In6,R-3m,0.0135120814978036,-0.1560268476687257
Cu7Pt5,P1,-0.46094162740251565,-0.4737203808341331
Cu8Fe16,Fd-3m,1.577664190834405,0.3359855501486168
Cu8Ge,I4/mmm,-0.1620332074234911,-0.272963164942836
Cu8In,I4/mmm,-0.10188237092836686,-0.217870925954949
Cu8In16,Fd-3m,0.278456804222312,-0.1102441783681073
Cu8In16,P6_3/mmc,2.504234316783296,0.6542281494553044
Cu8Ir16,Fd-3m,2.2719736848542653,0.5744552049671441
Cu8P4,I4_1/amd,-0.0283402834405713,-0.176555228817114
Cu8Sb4,Pa-3,0.9540970073097388,0.4983065831671939
Cu8Sn,I4/mmm,-0.1241290492466316,-0.238246691114854
Cu8Sn4,I4_1/amd,0.0650108839718222,-0.1124298758974741
Cu8Ta4,Pa-3,2.904287644549559,1.8379434226415527
Cu8Ta4,Pnma,0.2438275092562183,0.0104039302787787
CuAs7,Fm-3m,0.7589797825982918,0.6737532315079261
CuBr3,Imm2,-0.3019628280554134,-0.584180978126869
CuBr3,Pmm2,-0.1351095874461958,-0.2403334429615674
CuEu,Pm-3m,-0.2125178406061215,-0.5450293270447283
CuFe,F-43m,0.5171403790123731,2.4622983030673766
CuFe,Fm-3m,0.2075275421455566,1.1862114806180897
CuFe2,Fmmm,-0.0895014427588527,-0.1102335405154372
CuFe2,Immm,-0.053084981665739,-0.0101718708262281
CuGa,F-43m,0.0538647415382942,0.5528815549602301
CuGa,P-6m2,-0.1663315144328425,-0.3546697708858256
CuGe,P4/mmm,-0.029159022987894447,0.03561794283225095
CuGe3,P4/mmm,0.06480863358640254,0.1716536858811274
CuGe5,P4/mmm,0.3407197176850295,0.4086034867421055
CuI,P-6m2,-0.0573525202356877,0.09449331881703323
CuIn,F-43m,0.095213564108593,0.7233030663539881
CuIn,Fm-3m,-0.0356938555933489,0.183760730406385
CuIn2,P-3m1,-0.0467818788838769,0.007147192301932
CuIn3,Fm-3m,0.0409798455747059,0.1225478369693399
CuIn3,R-3m,0.0565845439538053,0.15470566054567658
CuIn5,F-43m,0.3095572125707351,0.3657908108280193
CuIn7,Fm-3m,-0.03340598510847965,-0.1427124605314614
CuIr,F-43m,0.6950440944754707,3.1955385306516155
CuIr2,I4/mmm,0.0291587802239594,0.215809674035119
CuIr3,Pm-3m,0.0440567225792991,0.1288885982885283
CuIr4,I4/mmm,0.4481984999999511,0.7184521473924605
CuK,P-6m2,0.1056153906929325,0.7661747830696235
CuK,Pm-3m,0.0687269977060252,0.614137184537583
CuK,R-3m,0.0951498516056356,0.723040471668729
CuK4,Im-3m,0.1076881697604859,0.15707911166997754
CuMn,P4/mmm,0.147496901834803,0.3420558735790573
CuMn2,I4/mmm,0.0505488744289518,0.2745833295940262
CuMn3,I4/mmm,0.0951473136434941,0.2341749789630631
CuMo,F-43m,0.7386052486992458,3.375078292110384
CuMo,P-6m2,0.012625783578989,0.38291285677590203
CuMo2,P-3m1,0.0048718734377531,0.149076433855624
CuNb,P4/mmm,-0.04607641897663155,0.1409684080636564
CuNb3,R-3m,0.0937442837824675,0.2312836454911097
CuNi,F-43m,0.482732564201176,2.320484547816876
CuNi,Fm-3m,0.151780298981663,0.956446064205715
CuNi,P-6m2,-0.1378852275751259,-0.2374267903489455
CuNi2,I4/mmm,-0.1236822836151632,-0.2041523866855369
CuNi4,Im-3m,0.8178165454134961,1.3278128210192832
CuNi5,F-43m,0.1195142101707128,0.1046998156833468
CuP2,P-3m1,0.086253815935671,0.3726899537984706
CuP3,Imm2,-0.0026415040399363,0.0326539068855508
CuPb,F-43m,0.1254472584619659,0.8479129480007708