formula,space_group,formation_energy_value,formation_energy_value_per_atom
CuPb,P-6m2,0.0105769617262979,0.3744685216048447
CuPb3,Immm,0.0145002667390618,0.0679792958873242
CuPb3,P4/mmm,0.0874049624794276,0.2182197098030022
CuPb5,Cmmm,0.0841941909077444,0.0561753298488906
CuRb3,Pm-3m,0.1611587027080713,0.3702098161638139
CuRh,F-43m,0.4704599293585476,2.269902189030031
CuRh2,P-3m1,-0.0213787248136372,0.0769475500341411
CuSb2,I4/mmm,-0.0080681945467583,0.1135209523630265
CuSb3,I4/mmm,0.2101445931609462,0.471158875520399
CuSb3,P4/mmm,0.1110769721934287,0.2670024734032116
CuSn,F-43m,0.0141796520397933,0.3893172135419776
CuSn2,P-3m1,0.0005912734079282986,0.1373146103999959
CuSn3,R-3m,-0.013905766663328004,0.009440759065550468
CuSr3,P4/mmm,-0.1217220594820836,-0.2127447160323871
CuTa,P4/mmm,-0.030999001956771,0.2031108352650613
CuTh,F-43m,0.213985440475447,1.2128280739185648
CuTh,P-6m2,-0.0561753753139852,0.09934498820483664
CuV3,Fm-3m,-0.0055745060496353,0.0266096400317121
CuW2,Immm,0.5617225394686725,0.7122286975657863
CuW3,Cmmm,0.0389124515626706,0.118287396281114
CuW3,Pm-3m,2.5946976374084927,5.385194010479232
CuW7,Fm-3m,0.5375482868095293,0.4455926223494437
Eu2Ga4,Imma,-1.1001878861148466,-1.570990581108671
Eu3As,I4/mmm,-0.7437302176333846,-1.4945656219502226
Eu3Fe,Fm-3m,0.2710885140933999,0.5967507844304113
Eu3Pd,Pm-3m,-0.4086708376530056,-0.8040825272281003
Eu3Sm,Pm-3m,-0.2408647721241085,-0.4582714311581398
Eu4I8,P2_1/c,-5.107236122093892,-3.665381315554353
Eu8Ge4,Pnma,-2.48706108313714,-1.865514707115712
EuGa,Pm-3m,-0.3810639206995823,-1.2397015310763275
EuGa3,Fm-3m,-0.5297855118505961,-1.053673017908024
EuGe2,P-3m1,-0.7505658285108511,-1.9266430494263596
EuI,Fm-3m,-0.7260132020201953,-2.6614295083821817
EuI,P-6m2,-0.7394764249521861,-2.716918943332842
EuI,R-3m,-0.7341335549396067,-2.6948980023211333
EuNb,P-6m2,0.1452130948257056,0.9293789607594962
EuNb,R-3m,0.1436353507083904,0.9228761991244256
EuNi,Fm-3m,-0.15675551024922685,-0.3152017279128927
EuNp,P4/mmm,0.1132940015345109,0.7978226120447166
EuPt,Fm-3m,-0.565150631780139,-1.998425324880062
EuSb,P-6m2,-0.5535548548450029,-1.9506326742499016
EuTa,Fm-3m,0.7317038228248951,3.3466336749443397
EuTh,Fm-3m,0.3004450064884985,1.5691760663998937
EuU,Fm-3m,0.4434497831335722,2.158578343355809
Fe12Mo17,I-43m,0.5668341783273255,-0.0531770077610796
Fe12W12,Pbcm,0.7044084268144799,0.03605446407280995
Fe16Na4,I-43m,3.7712702928098394,1.3582258353723
Fe16Pd8,Fd-3m,1.2746206081037406,0.231901277657473
Fe17Pb12,I-43m,7.735834697207138,1.9845775577978555
Fe17Pd12,I-43m,3.793911288126325,0.8641044314835601
Fe17Th2,R-3m,-0.4643587460136062,-0.3945038231084827
Fe18As6,Pmmn,-0.1583933309099947,-0.2602860571407577
Fe18Pb6,Pmmn,3.815431881091373,1.104576060945186
Fe24Pb5,I-43m,3.4016006474107705,0.7525919832517408
Fe26Mo2,Fm-3c,2.35830091472604,0.4814217796012996
Fe26Pd2,Fm-3c,1.9007426676259946,0.346718051012837
Fe2As,I4/mmm,-0.12868653841235564,-0.23246373706900147
Fe2As,P-3m1,-0.0753487133945745,-0.0713460240368807
Fe2As,P4/mmm,0.0509612443646107,0.2757164002728645
Fe2As2,P4/nmm,-0.14514754034045,-0.2610194383200779
Fe2As2,R-3m,-0.01145015489524405,0.014501230475609
Fe2Bi6,P6_3/mmc,0.4803798849515343,0.3866869217575996
Fe2Br2,Imma,0.3465841643807592,0.7523305812160663
Fe2Br2,Pmma,0.3474198884062853,0.7540528231408045
Fe2Br2,Pmmn,0.3393243005702782,0.7373696115174548
Fe2Ga,I4/mmm,-0.2249773265518868,-0.48248121994510207
Fe2Ga2,Cmcm,-0.1435515414800812,-0.2577304385244448
Fe2Ga2,I4_1/amd,-0.0326904747875466,-0.0292703595422073
Fe2Ga2,P4/nmm,-0.16121844251678208,-0.2832144213319711
Fe2Ga4,I4/mcm,-0.3729993592037152,-0.5719410304739487
Fe2Ga4,I4_1/amd,-0.020332352096706953,-0.08742869022768034
Fe2Ir,I4/mmm,-0.1050186767855321,-0.1528703124328863
Fe2Ir,P4/mmm,0.4595488502193451,1.3983943549375013
Fe2Ir2,P4/nmm,-0.08256140671975644,-0.13204329316145144
Fe2K,P-3m1,0.49701073839336096,1.5013285491970112
Fe2Mn3,R-3m,-0.0080899357383424,-0.0337952929578276
Fe2Mn4,Fd-3m,0.1411721299945113,0.134454596275881
Fe2Mo,Fm-3m,0.3966678511937119,1.225615958427682
Fe2Mo,Fmmm,2.031416079883633,5.717420828372129
Fe2Mo4,Fd-3m,0.7990936023110395,1.038341452223334
Fe2Mo6,I4/mmm,0.3509283237160926,0.2533014385281905
Fe2Na2,P4/nmm,0.2492325135074276,0.5517104130080849
Fe2Na6,P6_3/mmc,1.0078185967036395,0.9301540438960246
Fe2Nb2,Imma,-0.113481152296853,-0.1957620334496491
Fe2Nb4,Pnnm,0.5200333970399499,0.6549539779182194
Fe2Nb6,Pm-3n,-0.187665322239463,-0.3016596067033161
Fe2P,P-3m1,-0.2976303122769797,-0.6821101471209439
Fe2Pb,Fm-3m,0.7722881449559995,2.2577094852232613
Fe2Pb2,Cmcm,0.2165705624981246,0.4844013735957677
Fe2Pb2,Fd-3m,0.9340107744704278,1.9628865837986305
Fe2Pb2,Imma,0.4884284797467677,1.0446402662885983
Fe2Pb2,P4/nmm,0.17800380277698521,0.4049238326082083
Fe2Pb2,Pmmn,0.4664968282785124,0.99944399517076
Fe2Pb4,I4/mcm,0.7244817205314424,0.935835754999886
Fe2Pb4,Pnnm,0.4822636955215267,0.603063990750972
Fe2Pb6,Cmcm,1.2562190798541262,1.186103204827234
Fe2Pd,P-3m1,-0.0927250245025168,-0.119090990195293
Fe2Pd2,Fd-3m,-0.09173164156952046,-0.15094111401566696
Fe2Pd2,R-3m,0.44562319473730383,0.14974631270996513
Fe2Pd26,Fm-3c,2.848230949159237,0.6256556619625012
Fe2Pt,P4/mmm,0.5088046547321134,1.5337347447911671
Fe2Pt2,Cmcm,-0.2472066687606974,-0.4713406740377039
Fe2Pt2,P4/nmm,-0.0755223290834208,-0.11753731481632675
Fe2Rh3,R-3m,-0.0719525071532054,-0.13908057331626283
Fe2Rh4,P-3m1,-0.049332816200860996,-0.1272710413639411
Fe2Sb2,Imma,0.2264089619432814,0.5046761335395188
Fe2Sb4,I4_1/amd,0.30419494269175196,0.3584238446084947
Fe2Sb6,P6_3/mmc,0.0640058580329904,-0.0423403549678937
Fe2Sr2,R-3m,0.768835389753601,0.371045543615658
Fe2Sr6,I4/mmm,1.1632322754819313,1.0902906111684718
Fe2Sr6,P6_3/mmc,0.8193420657341004,0.7359498726921646
Fe2Ta2,Imma,-0.1799675694322146,-0.3327757981838248
Fe2Ta6,P6_3/mmc,0.2942925882728595,0.194944591626908
Fe2V,Fmmm,-0.195490645535091,-0.4014605373315566
Fe2V,P-3m1,0.0626752687867698,0.3079030764977836
Fe2V2,Imma,-0.211072734616419,-0.3968766471721145
Fe2V4,Cmcm,-0.3244272737866559,-0.5052101645244718
Fe2V6,P6_3/mmc,0.0754393823415816,-0.0305593756551538
Fe2W,P4/mmm,0.4206036040863444,1.2913843315153688
Fe2W2,I4_1/amd,0.0605337801139818,0.1628441606701227
Fe2W4,Cmcm,0.0875572495570586,0.060795675341176
Fe2W4,I4/mcm,-0.0627157864491351,-0.1456572643555064
Fe3As,Cmmm,-0.03143751660161713,-0.026688290519609966
Fe3As,P4/mmm,-0.1269017169042691,-0.2234188415759863
Fe3As,Pm-3m,1.008710705103972,2.116826578800107
Fe3Bi,Pm-3m,0.1468995529199648,0.3408248699063034
Fe3Ga,I4/mmm,-0.23801869882684,-0.4524063051072917
Fe3Ga,P4/mmm,-0.2141672563296342,-0.4032537703236907
Fe3Ga4,I4/mmm,-0.0212459610420796,-0.1123975966656489
Fe3Ge,Pm-3m,-0.2329328175285538,-0.4419254313635523
Fe3Ir,P4/mmm,-0.17617911490920893,-0.32496863336601794
Fe3K,Fm-3m,1.458640812756716,3.044032774785181
Fe3Mn,I4/mmm,-0.0652093290077315,-0.0962845081987402
Fe3Mn,Pm-3m,-0.0830099309104368,-0.1329676020742682
Fe3Mn2,R-3m,-0.0051422896528861,-0.0289357369200872
Fe3Mo,P-6m2,0.1175983603940181,0.2804416086003548
Fe3Mo,Pm-3m,-0.0690523413810411,-0.1042041046497739
Fe3Mo4,I4/mmm,0.2067832229899503,0.1561267410402172
Fe3Na,Fm-3m,0.8483185832774126,1.7862939769241775
Fe3Na,P4/mmm,0.8566352945423724,1.8034328749083977
Fe3Na,Pm-3m,0.4939923574636091,1.0561061846723936
Fe3Na,Pmmm,0.4855626052204849,1.0387343342949646
Fe3Nb,Fm-3m,-0.2057298998723131,-0.3858662493467643
Fe3P,Immm,-0.3158351019427893,-0.6127686589288484
Fe3Pa,Fm-3m,-0.2539019355104996,-0.485138134373434
Fe3Pb,Fm-3m,0.5827592180750124,1.239035003520319
Fe3Pb,I4/mmm,0.2178021112492454,0.4869393225199998
Fe3Pb,Pm-3m,0.9126155317329394,1.9187957321454783
Fe3Pd,Cmmm,-0.0651074145878478,-0.0960744851752325
Fe3Pd,Fm-3m,-0.079909838887186,-0.1265789997487253
Fe3Pd,Pm-3m,-0.10337780503416316,-0.17494127479665186
Fe3Pd2,P-3m1,0.8985540369579648,1.4609184765600784
Fe3Ta,P4/mmm,-0.2414928515241976,-0.459565763547611
Fe3V,Cmmm,-0.1914018454002147,-0.3563393058126929
Fe3V,Fm-3m,-0.3034816451611871,-0.5873109234385713
Fe3V,Imm2,-0.1318288035399255,-0.2335724747270752
Fe3V4,I4/mmm,-0.2561846959237507,-0.389058535717614
Fe3W,Fm-3m,-0.1045102251189915,-0.1772749415178865
Fe3W,Immm,-0.1057495108921644,-0.1798288347291604
Fe3Yb,Fm-3m,0.1393107653775594,0.325186061323253
Fe44Mo2,Fd-3m,2.028763093597016,0.13432937659351515
Fe4As,I4/mmm,0.3316641803296916,0.526331030969527
Fe4As12,P6_3/mmc,1.7024409463579269,0.6956026590062784
Fe4As2,Fd-3m,0.2388135288092278,0.2685994459251791
Fe4As6,Fdd2,0.028670016449715,-0.1139360286702487
Fe4Br12,Pnma,-0.9281297523863048,-0.6596530848118913
Fe4Ga2,I4/mcm,-0.0255531160304952,-0.0946012481944242
Fe4Ga4,Pnma,-0.0877532901797823,-0.1987113336232069
Fe4Ir,I4/m,-0.0811415463464517,-0.1542298312658171
Fe4Ir8,I4_1/amd,-0.2175168407676824,-0.3065055426587478
Fe4Mo16,I-43m,3.18596415358519,1.1169885989186543
Fe4Mo2,Cm,0.1252489350009888,0.1125784799535839
Fe4Mo8,P6_3/mmc,1.9995445527459548,1.2164517833649593
Fe4Mo8,Pa-3,1.824683229799708,1.09633497757947
Fe4Na,Im-3m,1.7297237526243383,2.8312036780577525
Fe4Na2,Fd-3m,1.0845903574622895,1.4305717946808478
Fe4Na4,P2_13,2.897246806795812,2.8770003578779257
Fe4Na8,Pa-3,4.154585457283553,2.696805617069521
Fe4Ni,I4/mmm,0.5021993187401238,0.8074791191332338
Fe4Pb,I4/mmm,0.42957695156341036,0.6877522412594437
Fe4Pb,Im-3m,1.4346279155822468,2.344702003489213
Fe4Pb4,Pnma,1.1925477969286338,1.1204970061858226
Fe4Pb6,Fdd2,2.4922920953983496,1.9168555252302184
Fe4Pb8,Pa-3,1.4819845831676668,0.8609263343936643
Fe4Pb8,Pnma,2.3549125443319374,1.4605633302096241
Fe4Pd2,Pnnm,0.9983075151725854,1.312031922794846
Fe4Pd6,Fdd2,-0.1938097080595577,-0.2973285827913525
Fe4Pd8,Pa-3,2.0638182432943823,1.2606030586420849
Fe4Pd8,Pnma,-0.3979327018973149,-0.4304379056695872
Fe4Pt8,I4_1/amd,-0.7319007980622454,-0.659849305913449
Fe4Rh2,P-3m1,-0.0998542439564529,-0.1966800155553298
Fe4V12,Pnma,-0.0251135605982095,-0.19442404486788006
Fe4V2,Cmcm,0.0004836814093938,-0.0588305369969036
Fe4W2,Cmcm,0.0884984895169386,0.062088799921884034
Fe4W2,Fd-3m,-0.1575923088611481,-0.2760035825023691
Fe4W2,I4/mcm,0.7012244945534787,0.9038837641441032
Fe5As3,Cmmm,-0.0704302796592221,-0.1808618916603514
Fe5Ga4,I4/mmm,-0.2664113131249594,-0.3685632243846422
Fe5Ir,P4/mmm,0.0594035356533046,0.0221166338225778
Fe5Ir4,I4/mmm,-0.115412523509665,-0.2302632124630823
Fe5Mn,Amm2,-0.0790603617519926,-0.1681122949388352
Fe5Mo,F-43m,0.0194455684407335,-0.0327797069620653
Fe5Pd,Cmmm,-0.100801116585951,-0.197980878591531
Fe5Pd,F-43m,0.1668962490164763,0.1697957335440008
Fe5Sb,Cmmm,0.1054659405233882,0.0853995696550288
Fe5Sb3,Cmmm,0.4339799276962978,0.3388769095704372
Fe6Ga2,Cmcm,-0.3580226105395784,-0.4771939069828975
Fe6Ir2,I4/mmm,-0.0798901216044915,-0.1906092100943768
Fe6Mo2,Pm-3n,-0.0485471168355782,-0.1583137182743943
Fe6Na2,Pm-3n,2.0318458483136665,1.9853006059962812
Fe6Nb2,I4/mmm,-0.1195789528679307,-0.2315041509229076
Fe6Pd4,Fdd2,-0.0371763483725169,-0.1682139322004458
Fe6Sb18,Pmmn,0.6765347380020014,0.0264808819644244
Fe6Sb2,Cmcm,0.4100496733795971,0.3142194353354962
Fe6Sb2,Pmmn,0.3567248256916784,0.2592740912306751
Fe6Ta10,I4/mcm,-0.4185967932955717,-0.3971444703116102
Fe6Ta4,Fdd2,-0.2406037464550778,-0.3359014380837806
Fe6V4,Fdd2,-0.1844251962738585,-0.2895928235469758
Fe7Ge,Fm-3m,0.1343597171184818,0.0301514975954323
Fe7Pb,Fm-3m,0.4187161035519886,0.3231492308928935
Fe8As4,Pa-3,0.83922475978646,0.4193978387209566
Fe8Ga4,Pnma,-0.467282798096293,-0.4780762964582602
Fe8Ge16,Cmce,-0.2190947766573293,-0.281134760693036
Fe8Ir,I4/mmm,-0.0159566307812408,-0.1391714150715005
Fe8Mo16,Fd-3m,1.0308823949260202,0.1481862081341506
Fe8Na16,Fd-3m,3.9141400281112655,1.13847866194712
Fe8Pd4,Pa-3,2.060005258076389,1.2579838195949606
Fe8Pt,I4/mmm,-0.2455555970719964,-0.3494614435948358
Fe8Sb4,Pnma,0.6925508145048704,0.3186436782105959
Fe8Ta4,I4_1/amd,-0.2568453824999701,-0.3335213442636338
Fe8W4,Pa-3,3.229724179400852,2.061494270785667
Fe8W4,Pnma,0.1402465681139666,-0.0607485211646245
FeAs,Pm-3m,-0.0333315840528357,-0.0305915435949499
FeAs2,P-3m1,0.062032318947857504,0.3061364404085855
FeAs3,Imm2,-0.06363586495568055,-0.09304194764676346
FeAs3,Pmm2,0.0722890135467554,0.1870690904730664
FeBi3,Fm-3m,0.3119736179163911,0.6810059186021138
FeBr3,Fm-3m,0.1339188280969263,0.3140744740568492
FeBr3,Imm2,-0.2611489345930744,-0.5000725927201236
FeGa,R-3m,-0.1755840163106686,-0.3928044808043942
FeGa2,I4/mmm,-0.1693202973957574,-0.3295521570945546
FeGa3,I4/mmm,-0.0841762405998342,-0.1353711077567136
FeGe,P-6m2,-0.2297423321382447,-0.6160210433119278
FeGe,Pm-3m,-0.14074191576539624,-0.2509057362958361
FeGe3,Pm-3m,0.3203627067081498,0.6982939706219421
FeGe7,Fm-3m,0.634985181590776,0.5459905408506491
FeI,P-6m2,0.121287883901155,0.8307698504457921
FeIn,P-6m2,0.0029261303207326,0.3429351871468074
FeIr2,I4/mmm,-0.13094417830208796,-0.2241059265317877
FeIr2,P4/mmm,0.2927723560194641,0.9401418511622656
FeIr3,I4/mmm,-0.1912495120327078,-0.3560253805167296
FeIr3,P4/mmm,0.3503014011955147,0.7599909821271457
FeIr8,I4/mmm,-0.13089555997235,-0.2444441481700953
FeK,R-3m,0.4416485707846819,2.1511545447623406
FeMn,Pm-3m,-0.0876079547925206,-0.0302061663081883
FeMn2,P-3m1,-0.07273136358525806,-0.06415432049898626
FeMn3,Cmmm,-0.0537760788659403,-0.0727231145702484
FeMn5,F-43m,0.0891490512026824,0.0629825755189266
FeMo,Fm-3m,0.2105711235039705,1.1987557733671494
FeMo2,I4/mmm,-0.0338051625436311,0.04280337264214
FeMo3,Immm,0.0426919096851081,0.1260760215119793
FeMo3,P4/mmm,-0.044918274946691,-0.0544691445934546
FeMo5,F-43m,0.5799530806330899,0.7372747664793089
FeNa,Fm-3m,0.8427854585700154,3.804462920736997
FeNa,Pm-3m,0.3579399613755077,1.8061447755499895
FeNb,P-6m2,-0.0030236253091661,0.3184129327308083
FeNi,Fm-3m,0.1180346601050579,0.8173615045300061
FeNi,P-6m2,-0.1580731857223168,-0.3206326019182819
FeP5,Amm2,0.0098641896719297,-0.0459431051720103
FeP5,Cmmm,-0.3079958894802252,-0.4826358712014252
FePb,F-43m,0.3769869159723805,1.88464787643826
FePb,P-6m2,0.1396100823255283,0.906285827768468
FePb,Pm-3m,0.41311079584548416,1.2691105872459545
FePb2,Fm-3m,0.2508032524235812,0.8248231613415913
FePb3,Cmmm,0.6677873424287578,1.414259115872075
FePb3,Fm-3m,0.5531144102923597,1.177943627354676
FePb3,P4/mmm,0.2825906951045085,0.6204542292976146
FePb3,Pm-3m,0.5180000304949838,1.105580675948391
FePb3,Pmm2,0.3390401358415635,0.7367840110149249
FePb4,I4/mmm,1.1711701515077533,1.9103595719419937
FePd,F-43m,0.3086149557031126,1.602848974275266
FePd,Fm-3m,0.0700774695559234,0.6197032306653317
FePd,Pm-3m,-0.1178726176806953,-0.1549436865230969
FePd2,Fm-3m,0.2795127291857011,0.9037083164195648
FePd3,Fm-3m,-0.15931847815790764,-0.2902225992639258
FePd3,Pm-3m,0.17902092819125545,0.40701990257588666
FePd3,Pmmm,-0.2258106594849139,-0.4272482427190782
FePd3,R-3m,-0.17140831060829695,-0.31513706345682674
FePd4,Im-3m,0.3847584107556148,0.6138633807005572
FePt,P4/mmm,-0.0729141745412506,-0.06473833748533134
FePt3,Cmmm,-0.043165647679651,-0.0508573683784117
FePt3,I4/mmm,-0.2990283982234819,-0.5781337688479773
FePt3,P4/mmm,-0.059256092173967496,-0.08401620700140675
FePt3,Pmmm,-0.0778882013149657,-0.1224128529381067
FeRb,Amm2,0.4961026070832592,2.3755899359204946
FeSb,P-6m2,-0.0860814144984503,-0.0239144441273054
FeSb,R-3m,-0.065562823200359,0.0606540906779231
FeSb3,Immm,0.1540468055868387,0.355553773005429
FeSn,R-3m,-0.0529148222875972,0.1127835419578925
FeSr,P-6m2,0.3100571718820165,1.6087931498451378
FeSr3,P4/mmm,0.4052608711342259,0.8732502643767308
FeTa,R-3m,-0.0626606574116664,0.0726155311562673
FeTh,Fm-3m,-0.07167228000295095,0.03547361884411345
FeU3,Pm-3m,0.0454095105761822,0.1316763944178157
FeV,P-6m2,-0.08695593495036369,-0.02751882964291375
FeV2,P-3m1,0.0688690833768025,0.3249218479824529
FeV3,Immm,-0.26791073256860903,-0.5140071591611716
FeV3,R-3m,-0.2433913558232481,-0.4634781599826204
FeV5,P4/mmm,-0.2577141442709388,-0.4135561854013133
FeW,P-6m2,-0.0090836379118608,0.2934362479640144
FeW,P4/mmm,0.1636992233335439,0.0603826062576958
FeW7,Fm-3m,0.5862664939336556,0.4957913340320564
FeYb3,Pm-3m,0.1552888180541072,0.3581132853286873
Ga10Mn4,P4/mbm,-0.5188219904629557,-0.4765085041618454
Ga10V12,P6_3/mmc,-1.1367017455146256,-0.6273551006904736
Ga12Ir6,Cmcm,-1.884379119172405,-1.0525711770752235
Ga12P17,I-43m,0.1357049708870557,-0.1757234503918984
Ga13Mn13,R-3m,-0.6708882450354023,-0.4223376554090335
Ga13Nb5,Cmmm,-1.52934949445295,-0.8899851011990423
Ga14Pt6,Im-3m,-2.544606820546036,-1.2448986468433416
Ga16P8,Fd-3m,0.91351459408493,0.1078747055629587
Ga16Pt4,I-43m,-0.4862962630703668,-0.3965543063815143
Ga16Pt8,Fd-3m,-2.23791428517986,-0.9745246617167796
Ga24Pt5,I-43m,-0.2839228259379029,-0.2950006713327485
Ga2As,I4/mmm,-0.0678841237924749,-0.0508355384841798
Ga2As2,I4_1/amd,0.0357009999706744,0.1116693065743829
Ga2As2,P4/nmm,0.0529253127616393,0.1471647963620849
Ga2As2,P6_3/mmc,-0.1416490760902534,-0.2538098791595738
Ga2Br2,P-3m1,-0.6179910592271307,-1.2354450946299922
Ga2Br2,Pmmn,-0.6514186028962627,-1.304331850771464
Ga2Br6,Cmcm,-0.9216287725101217,-1.057927577153044
Ga2Ge2,Cmcm,0.0173286233212342,0.0738079117164063
Ga2Ge2,Pmmn,0.0015303362741389,0.0412511448166839
Ga2Ge6,Pmmn,0.2839044756152163,0.1842407931291738
Ga2In2,Pmma,-0.1012542823437782,-0.1705651653468717
Ga2K2,Fd-3m,-0.0665707069879328,-0.0990900063791252
Ga2Mn4,Fd-3m,0.1297698282069624,0.1187895189878223
Ga2Mn4,I4_1/amd,0.4970275462547668,0.6233473394216862
Ga2Mo2,C2/m,-0.0837390972007075,-0.134470252132006
Ga2Na,I4/mmm,-0.1738432811330787,-0.3419799793251745
Ga2Nb3,R-3m,-0.0531674118105057,-0.1081110400529064
Ga2Nb6,Pm-3n,-0.4936945005444666,-0.6169887494416587
Ga2Ni,I4/mmm,-0.2738080307481428,-0.6166535597966862
Ga2Np,P6/mmm,-0.3096606844638103,-0.7151660534847976
Ga2P,Fm-3m,-0.0592694627840843,-0.0271649966898513
Ga2P,I4/mmm,-0.0315507745176519,0.0489977644977918
Ga2P2,Pmmn,-0.1913906167989797,-0.3563161661550876
Ga2P4,Fd-3m,0.3817800176654745,0.4650142698145998
Ga2Pd2,Imma,-0.6504323375826975,-1.302299376629216
Ga2Pt2,P4/nmm,-0.39487748194162686,-0.7756574792895718
Ga2Pt4,Cmcm,-0.6444184032446648,-0.944830678684742
Ga2Rh,I4/mmm,-0.4176042656231338,-1.0117631043464206
Ga2Rh2,P-3m1,-0.2896646915325519,-0.5588372454245706
Ga2Rh2,Pmmn,-0.5697685262943802,-1.1360691458751924
Ga2Sn2,Pmmn,-0.1163883030642828,-0.2017530266247582
Ga2Sn2,R-3m,-0.1041631601644208,-0.17655971759574
Ga2Sn3,R-3m,-0.087224444884032,-0.1642582354426649
Ga2Sn4,C2/m,-0.0956253761689441,-0.1908701762819432
Ga2Sr2,Imma,-0.4394745863127409,-0.8675622235877783
Ga2Sr6,Cmcm,0.0173739477222092,-0.0903893690651535
Ga2Ta,I4/mmm,-0.1087693708936511,-0.1631761110658798
Ga2Ta6,Pmmn,-0.1716750721807153,-0.2851834266504081
Ga2Th,P6/mmm,-0.5809872799083639,-1.4606913284930414
Ga2V3,P-3m1,0.1627334997033127,0.24782808821532687
Ga2W,I4/mmm,0.0179369736824719,0.1849754670373702
Ga2W2,R-3m,0.0686208406936326,0.1795097995087358
Ga32Rh6,Ccce,-2.7562437908745165,-0.8217568786727931
Ga3As,Imm2,-0.0595709244962861,-0.0846650066149136
Ga3Br,Immm,-0.2010078922641135,-0.3761352386023346
Ga3K,Cmmm,0.1334446164267633,0.3130972289440975
Ga3K,Pmm2,-0.1518242117859692,-0.2747785778565234
Ga3Mn,R-3m,-0.03074842819072,-0.0252682320854267
Ga3Na,I4/mmm,-0.1537368102499761,-0.2787200192406315
Ga3Na,P4/mmm,-0.1641020634240931,-0.3000805079088242
Ga3Nb,I4/mmm,-0.440193734797463,-0.8690442291693702
Ga3Nb2,R-3m,-0.1546748591474848,-0.2754585147093318
Ga3P,Cmmm,0.0008396891270607,0.039827874172825
Ga3P,Pm-3m,-0.0231288887980154,-0.009566050757031
Ga3Pb,P4/mmm,-0.0953061892919076,-0.1583074643435711
Ga3Pd,Imm2,-0.3681556356742461,-0.7205896787448732
Ga3Pt5,Cmmm,-1.1321919681685708,-1.2748896078553926
Ga3Rh,I4/mmm,-0.3333776598322522,-0.6489199813051018
Ga3Rh,P4/mmm,-0.2983680031632674,-0.576772841047828
Ga3Sn,R-3m,-0.0873638848679949,-0.1419401358474411
Ga3Sr,Cmmm,-0.31573480059965064,-0.6125619600988701
Ga3Th,Pm-3m,-0.5878112308589079,-1.1732511596591415
Ga3V,P4/mmm,-0.1884770752733771,-0.3503120030443062
Ga3V,R-3m,-0.139681907924774,-0.2497559817196078
Ga3W,P4/mmm,0.07262575089945461,0.18776303149753165