formula,space_group,formation_energy_value,formation_energy_value_per_atom
Na2P2,Cmcm,-0.4676775614611718,-0.925682302369038
Na2P2,Fd-3m,-0.0304310174691286,-0.0246141189626863
Na2P2,Imma,-0.4413162841174055,-0.8713575544326639
Na2P2,P4/nmm,-0.1910495783453465,-0.3556133615152125
Na2Pb,Immm,-0.2432042124693496,-0.5325633142340758
Na2Pb2,Imma,-0.2798371448589257,-0.5385848506367305
Na2Pb2,Pmmn,-0.2344600924558712,-0.4450728063702374
Na2Pd,Fmmm,-0.1696785321707677,-0.330536480355308
Na2Pd,Immm,-0.1811076126513078,-0.3619402148634763
Na2Pd2,Imma,-0.2061879301082524,-0.3868101481112347
Na2Pd4,Cmcm,-0.1547276312587898,-0.2720679389031691
Na2Pd6,I4/mmm,-0.1490893532210643,-0.2619113470496265
Na2Pt,I4/mmm,-0.13882259277852116,-0.2457534805046973
Na2Pt,P4/mmm,-0.2144555722682574,-0.4535705496032596
Na2Pt2,Cmcm,-0.20079700091824176,-0.37570063829609557
Na2Pt2,Fd-3m,-0.15431278470077553,-0.2799069748820231
Na2Pt2,P4/nmm,-0.11286638645277063,-0.19449513734730356
Na2Pt2,Pmmn,-0.1969912582288668,-0.3678578464004334
Na2Pt4,Cmcm,-0.2091740848349007,-0.3468693184160163
Na2Pt4,I4/mcm,0.2748521954506438,0.3181112470347436
Na2Rh4,Cmcm,0.1825696107109344,0.1913286158411075
Na2Rh4,Fd-3m,0.1975986393809151,0.2119762798010969
Na2Rh4,Pnnm,0.5090590065767117,0.6398767875404235
Na2Sn,I4/mmm,-0.2390298267631903,-0.5210933363409175
Na2Sn2,Pmma,-0.3286790054662521,-0.6392370964151002
Na2Sr2,Fd-3m,-0.0491077423351513,-0.0631027080167224
Na3Ge,Pmmm,-0.1056312600987214,-0.1795851460617528
Na3Pb,Pm-3m,-0.0081629543305122,0.0212754220205263
Na3Pd,Imm2,-0.15302337029883215,-0.27724977768108117
Na3Pd,Immm,-0.1545607099676555,-0.2804178938885139
Na3Pt,I4/mmm,-0.1922580075079228,-0.3581036660933952
Na3Rh,Cmmm,0.1324082968788706,0.3109616041226348
Na3Rh,Immm,0.1481192966506883,0.3433384913008372
Na3Sn,Pm-3m,-0.2954829177875726,-0.5708273197528744
Na3V,Pmm2,0.4161314664708644,0.895652151200355
Na4P,I4/mmm,0.0791275099885418,0.109993361680725
Na4P2,Cmc2_1,-0.418616476411929,-0.6346122068767182
Na4P2,I4/mcm,-0.4539304317012017,-0.6831283617076293
Na4P2,P4_2/mnm,-0.335357784754318,-0.5202270709611505
Na4P20,Pnma,-1.614819879992417,-0.7605147583462883
Na4Pb,Im-3m,-0.2129000362697941,-0.3714498592704308
Na4Pb2,Cmcm,-0.344634918356621,-0.5329724812826362
Na4Pb2,Fd-3m,-0.1499537740303741,-0.2655093646925699
Na4Pd,I4/m,-0.170586050323709,-0.3016900645312602
Na4Pd2,Cmcm,-0.17218744121981774,-0.29605513706459496
Na4Pt2,Cmcm,-0.3105257290843004,-0.4861114968832068
Na4Pt2,Fd-3m,0.19185955007666,0.20409161938872306
Na4Pt2,I4/mcm,-0.3819055790136743,-0.58417686006932
Na4Pt4,P2_13,0.2691461865079093,0.1690340122651165
Na4Pt5,I4/mmm,-0.1403694655900441,-0.2531213121606742
Na4Pt8,I4_1/amd,-0.2247136886276171,-0.3114492452574363
Na4Pt8,Pnma,-0.3820193992047437,-0.4195066427881044
Na4Sr,Im-3m,0.2732365450685952,0.430005909339469
Na5Pd,P4/mmm,-0.1706653522280783,-0.2939640117690921
Na5Pt,Cmmm,-0.1755903899856723,-0.3007302856808705
Na5Pt,F-43m,0.0840936228467524,0.0560371641979981
Na5Pt4,I4/mmm,-0.1546579569137699,-0.2662081622304459
Na6Pb2,Pm-3n,-0.3503913366064201,-0.469330725175619
Na6Pd2,I4/mmm,-0.1661890463195224,-0.2795306851653258
Na7Pt,Fm-3m,-0.0449107407183794,-0.1545668358037049
Na8Pd4,Pnma,-0.1778084472558945,-0.2792288109541877
NaBr,Cmmm,-0.809931453867052,-3.007303330761256
NaBr,Fm-3m,-0.8999650259007336,-3.3783817912439567
NaBr,Pm-3m,-0.834468043833268,-3.108432274381892
NaBr3,Cmmm,-0.6794261565180558,-1.3620492091140477
NaBr5,Cmmm,-0.7609857871117265,-1.1049770343563918
NaI,F-43m,-0.7220582545710914,-2.6451289687328785
NaNi,P-6m2,0.06647074871683785,0.6048379266889656
NaP,Cmmm,-0.2278870524691779,-0.4315272282938677
NaP,P-6m2,-0.0873683303492548,-0.029218540609323
NaP3,Cmmm,0.1327712761824316,0.3117096239896135
NaP3,Imm2,-0.0133360722056409,0.0106147730335009
NaP3,Immm,-0.0748895227890181,-0.1162332413456948
NaPb,P-6m2,-0.19159046341729,-0.4587759580651302
NaPb,Pm-3m,-0.2018496400352269,-0.5010597348742959
NaPb3,Fm-3m,-0.190228363991517,-0.3539210208068413
NaPb4,Im-3m,0.1058690724364756,0.1540801066578942
NaPd2,Immm,-0.1706190924777133,-0.3331208620313783
NaPd3,C2/m,-0.1946966308916913,-0.3631291282099452
NaPd3,Cmmm,-0.110829854855935,-0.190298297254169
NaPd4,I4/m,-0.151925680111565,-0.2709261559404992
NaPt,P-6m2,-0.2287900720544551,-0.6120962495056844
NaPt,P4/mmm,-0.20414871524163264,-0.5105355033999279
NaPt,Pm-3m,-0.0603362553978906,0.0821956855512538
NaPt2,I4/mmm,-0.1730318089611474,-0.3397502936832294
NaPt2,P4/mmm,0.0743479640650659,0.3399761924530438
NaPt3,Fm-3m,-0.0329271979045497,-0.0297581934014778
NaPt3,P4/mmm,-0.1702010471423481,-0.312649161120942
NaPt4,Im-3m,0.8802191749462172,1.4306912081543024
NaPt5,Cmmm,-0.2084125039642836,-0.3458230188686434
NaRh,Pm-3m,0.1786751531077401,1.0672947269720654
NaSr,P4/mmm,-0.13146151101189,-0.210951079133455
NaSr,Pm-3m,-0.1334087894097826,-0.2189768972110815
NaTa,P4/mmm,0.3351097705206428,1.7120488524005648
Nb10Ge6,I4/mcm,-2.308931036288326,-1.371034410534499
Nb10Ge6,P6_3/mcm,-2.1243216122183872,-1.275924637414474
Nb10Ni6,I4/mcm,-0.4695889332434724,-0.4234153439995756
Nb10P6,I4/mcm,-3.0715526134564985,-1.763932907164993
Nb12W4,Cm,-0.230391983895355,-0.3001823741871421
Nb24As8,P4_2/n,-3.9888853666018975,-1.2456089075951156
Nb2As2,Cmcm,-0.5514563386066582,-1.0983317871225704
Nb2As2,Imma,-0.3420040553240873,-0.666697069819526
Nb2As2,P4/nmm,-0.4317183649841485,-0.8515783710938416
Nb2Ge,P-3m1,-0.1791167350687525,-0.3564698718076827
Nb2Ni3,P-3m1,0.1362421654435649,0.2041538750915276
Nb2Ni4,I4_1/amd,-0.0980325081095377,-0.1941772197714543
Nb2P,I4/mmm,-0.4173864039771962,-1.011164484947407
Nb2P2,P4/nmm,-0.193839861504901,-0.3613635164616971
Nb2Pb,Fmmm,0.1883295370720146,0.199241903289645
Nb2Pb2,Cmcm,0.2488015062721568,0.55082220265661
Nb2Pb4,Cmcm,0.5628495645787225,0.7137770634820257
Nb2Pb4,Pnnm,0.5560790387573709,0.7044753617512326
Nb2Pt2,Pmma,-0.7113801082897985,-1.427899219071227
Nb2Sr2,Cmcm,0.5836296639157399,1.2408287994078675
Nb2Ta,P-3m1,-0.1462574459115363,-0.2661822590310164
Nb2Ta3,P-3m1,0.5349903744165408,0.8615391955387566
Nb2Ta4,C2/m,0.2320938810717754,0.2593676431614016
Nb2V4,I4/mcm,0.6928861097075162,0.8924280558578854
Nb2V4,I4_1/amd,0.7993013711109067,0.6016739744691249
Nb2V6,I4/mmm,0.1367242722928567,0.0325879095749137
Nb2W,I4/mmm,-0.1663903389453731,-0.3215014974240326
Nb2W,Immm,0.392922957280474,0.4803230218137571
Nb2W2,Cmcm,0.1521685828661055,0.3516831724066182
Nb2W4,Pnnm,0.0569283168165145,0.018716049001579946
Nb2W6,Pmmn,0.5104858390869823,0.4177077700356325
Nb3Bi,Fm-3m,0.0851823860682614,0.2136394725963067
Nb3Br,Pmm2,0.2188175127330311,0.4890318398491694
Nb3Br5,Cmmm,-0.2505276587302801,-0.3664322757212445
Nb3Ni,Fm-3m,-0.123810678504186,-0.2170488967604754
Nb3P,P4/mmm,-0.263213547355088,-0.5043273018686973
Nb3P4,I4/mmm,-1.3166123813085635,-1.6378050201278027
Nb3Pb,Pm-3m,0.0134775999490979,0.0658718063729427
Nb3Sn,Pm-3m,-0.2854960975715326,-0.5502466975073232
Nb3V,I4/mmm,0.1594953642023545,0.3667820442892729
Nb3V4,I4/mmm,-0.0855325113587815,-0.188100640644276
Nb4As5,I4/mmm,-0.0628948213598379,-0.1821621723691929
Nb4Br,I4/mmm,0.7610931016775422,1.234297268101132
Nb4I16,Cmc2_1,-2.7644154759594635,-1.335494027665368
Nb4Ni,Im-3m,0.6733946135974819,1.0897155561537932
Nb4Ni2,I4/mcm,-0.3641729864899919,-0.5598148989866496
Nb4Pb2,Cmcm,0.1315160198511333,0.1211885282032749
Nb4Pb4,Pnma,0.8692823277763071,0.787407776494404
Nb4Sn,Im-3m,1.275234916633248,2.08192309857322
Nb4Sn8,Fddd,-0.941972170957178,-0.8041528138245067
Nb4Sr2,Cm,0.736442561467748,0.952268182520968
Nb4W4,Pnma,0.4081808849763518,0.3122938560544012
Nb4W8,Pnma,0.18817218455943924,-0.02782716459625215
Nb5Br3,Cmmm,0.882058251862214,0.8005719499631314
Nb5W4,I4/mmm,-0.2405258648416473,-0.3448547044998286
Nb6Br4,R-3c,0.9353581140387468,0.6334572287370206
Nb6Pd4,Fdd2,-0.4129732545420201,-0.4779875738446377
Nb6Pt2,Cmcm,2.189484972373261,0.9465250972683285
Nb6Pt2,Pm-3n,-0.8815024545309806,-1.016581854762488
Nb6Rh2,I4/mmm,-0.2729283258301687,-0.3895136798948521
Nb6V10,I4/mcm,0.787353590532336,0.2241546208790222
Nb8Br40,Pnma,-10.620486119339985,-2.0541541921457203
Nb8Ni,I4/mmm,-0.1846585281064084,-0.2936857291974812
Nb8P,I4/mmm,-0.4345700478060955,-0.5225800550517405
NbAs3,P4/mmm,-0.09768286635189766,-0.16320526882119246
NbBi3,Pm-3m,0.2732377827716946,0.6011799506530228
NbBr3,Immm,-0.6581503466190456,-1.3182044820610446
NbBr3,P4/mmm,-0.4815629734071458,-0.9542970577968942
NbGe,R-3m,-0.1752034088305821,-0.3912357855436323
NbGe3,R-3m,-0.00569851331974175,0.026354088542193548
NbI,F-43m,0.3207862370263841,1.6530135987983472
NbNi,P4/mmm,-0.1599736341961393,-0.3284654078146081
NbNi2,I4/mmm,-0.3809779203563197,-0.7524172742567301
NbNi2,P-3m1,-0.1585145927496225,-0.2998612750976446
NbP2,I4/mmm,-0.5091594200315832,-1.2633296032255548
NbP3,P4/mmm,-0.28847902321198404,-0.5563938458953658
NbPb3,Cmmm,0.3050317886956888,0.6667003476802561
NbPd2,P4/mmm,0.0895612881594611,0.3817779097181001
NbPd3,I4/mmm,-0.5291690971317579,-1.0524027238403857
NbPt2,Immm,-0.8435796117765055,-1.5327908857284487
NbRh3,I4/mmm,-0.5201684364238506,-1.033854357695544
NbSb3,Pmm2,0.1013991655521395,0.2470586596225289
NbSr3,Immm,0.4988862906291322,1.066191495872132
NbTa2,P-3m1,-0.14722608470178575,-0.2688437920786751
NbU,P4/mmm,-0.0344410548297337,0.1889242196266056
NbV2,I4/mmm,-0.11015957907483886,-0.18222568685806667
NbV5,P4/mmm,-0.0987795605720798,-0.1952035594335683
NbW3,Cmmm,0.2740213590481642,0.602794727628851
NbW3,Immm,-0.2017488868147319,-0.3776622640821561
NbW3,Pmm2,0.2659390277507951,0.5861388347924716
Ni12Sr4,Pnma,0.0695620362005401,-0.1456476913480258
Ni17Br12,I-43m,1.8810052918207316,0.320369929415778
Ni24Ta5,I-43m,-1.212719422158203,-0.559006720633363
Ni2As2,P4/nmm,-0.2370477471960232,-0.450405389069928
Ni2As6,I4/mmm,0.3784941870606335,0.2817050048332739
Ni2Br6,Pm-3n,0.7702469818734285,0.6853628313120009
Ni2Ge,P-3m1,-0.2911749549306129,-0.6643727334588538
Ni2Ge2,Cmcm,-0.20930664140416,-0.3932371206295662
Ni2Ge4,Cmcm,-0.0066867790172134,-0.068681689761201
Ni2Ge4,Pnnm,-0.329700164528842,-0.5124543370211189
Ni2Ge6,Pmmn,-0.0008461826287753,-0.1091631935611652
Ni2Np2,Pmma,-0.2728012248533851,-0.5240853794685828
Ni2P,P-3m1,-0.387438950784097,-0.9288777366063504
Ni2P2,Cmcm,-0.3575708147416362,-0.6987767096077133
Ni2P2,P4/nmm,-0.3255305907654579,-0.6327489117649634
Ni2P4,Cmcm,-0.1553481448358924,-0.2729204328403332
Ni2P4,I4/mcm,-0.1105135921397248,-0.2113243844066802
Ni2P6,I4/mmm,0.4597920252632847,0.3654734146591264
Ni2Pb2,P6_3/mmc,-0.0972836260947723,-0.1623825231684855
Ni2Pb2,P6_3mc,0.4096292510958618,0.8822525269458583
Ni2Pd,I4/mmm,-0.1201977228597222,-0.19457784383165
Ni2Pd4,C2/m,-0.0735101048880302,-0.1604870623882031
Ni2Pt6,P6_3/mmc,-0.1693490026292803,-0.2827866698389621
Ni2Rh2,Cmme,0.0545039507144078,0.1504180191763134
Ni2Rh4,Cmmm,-0.080914871438856,-0.170660117134516
Ni2Rh4,Fd-3m,0.6140871543873064,0.7841699384787013
Ni2Sb,I4/mmm,-0.20027324163072163,-0.4146016975764872
Ni2Sb,P4/mmm,-0.062091719573016,-0.0349197240333495
Ni2Sb2,P4/nmm,-0.18960020523735396,-0.3526265248862177
Ni2Sb4,I4/mcm,-0.1111376259516467,-0.2121817146261621
Ni2Sb4,Pnnm,-0.6538949944098982,-0.9578501142159797
Ni2Sn,I4/mmm,-0.2197442269173401,-0.4681022091525967
Ni2Sn2,P-3m1,-0.0345495434190703,-0.0331014878098907
Ni2Sn2,P4/nmm,-0.1761483747580621,-0.3249052847300318
Ni2Sn2,Pmmn,-0.2435764844654225,-0.4638596690684957
Ni2Sn4,I4_1/amd,0.1470924130734932,0.1425881901525759
Ni2Sr2,Fd-3m,0.2658148342190488,0.5858828994590101
Ni2Sr2,I4_1/amd,0.1597597918098594,0.367326970960989
Ni2Sr2,Pmma,0.0301483100758897,0.1002264438113475
Ni2Sr4,I4/mcm,0.1340525970200686,0.1246734103032983
Ni2Ta,Fm-3m,0.102863107112623,0.4183273759321204
Ni2Ta,I4/mmm,-0.3768106118577969,-0.8996742031748852
Ni2Ta4,Fd-3m,0.7036540318959691,0.90722158934409
Ni2Ta6,Pm-3n,-0.2885113296876091,-0.4055702378834425
Ni2V,Immm,-0.4161530978640151,-0.6312278888625295
Ni2V2,Pmma,-0.2784276115364202,-0.535680114972579
Ni2V4,Cmcm,-0.1829286776624057,-0.3108120082803865
Ni2Yb2,Pmma,-0.3550834051354872,-0.6936507099034342
Ni32P12,R-3c,-4.978975989513168,-1.1608426070554057
Ni3Np,Pm-3m,-0.0185229789529752,-7.42917619516499e-05
Ni3P,Immm,-0.4149443088527637,-0.8170107604532458
Ni3P,P4/mmm,-0.2920688328165446,-0.5637916475786534
Ni3P,Pmmm,-0.3025358035835627,-0.5853617536535822
Ni3P2,P-3m1,-0.5868952049207491,-0.9880267573148448
Ni3Rh3,Cm,-0.0640329450186135,-0.1474668455414773
Ni3Sb,Fm-3m,-0.3386798647402541,-0.6598466500464525
Ni3Sb,I4/mmm,-0.2619826064341175,-0.5017906055476404
Ni3Sb,P4/mmm,-0.10809786901866175,-0.1846682801635628
Ni3Sm,Pm-3m,-0.4329877285223922,-0.8541942479102593
Ni3Sr,Cmmm,0.3166761810215232,0.6906968585368436
Ni3V,I4/mmm,-0.3645770684476674,-0.7132150451100117
Ni3Yb,I4/mmm,-0.2129992442901587,-0.4008467564751693
Ni4Ge2,Pnnm,-0.3743766615471769,-0.5738332403155539
Ni4Ge5,I4/mmm,0.1870175938285108,0.0467329736644392
Ni4P2,C2/m,-0.5773884834551112,-0.8527414765499304
Ni4Pd8,I4_1/amd,0.0392674750694114,-0.1301136952537869
Ni4Rh8,Pnma,-0.0003616929530364,-0.1573360049023087
Ni4Sb2,I4_1/amd,0.09695697307756551,0.07370950609032481
Ni4Sb3,I4/mmm,-0.2840192697914152,-0.4218361845298368
Ni4Sr,I4/m,0.2469601479265796,0.3866860464117003
Ni4Ta,Im-3m,0.7856183704627746,1.274730181194234
Ni4Ta16,I-43m,2.2864961523950083,0.7462677737910678
Ni4Ta4,P2_13,-0.1371723877391552,-0.2496322352006654
Ni4Ta6,R-3c,0.0821750066989259,-0.069831259834927
Ni5P,P4/mmm,-0.2383782642520811,-0.3869915442813257
Ni5Rh,Pmmm,-0.1116150751577438,-0.2128376592638319
Ni5Sb4,I4/mmm,-0.1619110241949069,-0.2728512571453441
Ni5Ta,F-43m,-0.4616208938530513,-0.6936939199812371
Ni5U,F-43m,-0.591939075952719,-0.87273183992647
Ni6As4,Fdd2,-0.4466276692996501,-0.5057292887063687
Ni6Ge18,Pmmn,1.0207801035133577,0.1447164443374524
Ni6P2,I4/mmm,-0.693150561255563,-0.8225061088854478
Ni6P7,R-3m,0.4632005929220062,0.1291141737846158
Ni6Ta2,P6_3/mmc,-0.7567874585185199,-0.8880768769135112
Ni8Ge4,Pnma,-1.3203577620434743,-1.0640757504164478
Ni8Pt4,Pnma,-0.2616878258939521,-0.3368477449958355
Ni8Ta16,Fd-3m,-0.5690286674989151,-0.4013241213125381
NiAs,Fm-3m,-0.2748687930035215,-0.802012304645592
NiAs3,Fm-3m,-0.1352036705160553,-0.2405273273089968
NiAs3,P4/mmm,-0.016232056642741,0.0046467911894677
NiBi3,Fm-3m,0.1855349236048193,0.4204438028780561
NiGe2,I4/mmm,-0.1390921699509861,-0.2464941988825201
NiGe2,P4/mmm,-0.0971977682949373,-0.13138076790920375
NiGe3,R-3m,0.0781248167287961,0.1990953869509045
NiGe4,I4/mmm,0.3875189471594464,0.6184144634831313
NiGe5,P4/mmm,0.0608731223743201,0.0241356287584382
NiP,P-6m2,-0.2344439284721945,-0.6353989385792679
NiP3,I4/mmm,0.1935329803263098,0.4369260244984185
NiP3,R-3m,0.2268153280858855,0.5055135640622876
NiP4,I4/mmm,0.1136103134796358,0.1668424918154961
NiPa,P-6m2,-0.10720365718434315,-0.11097096227690056
NiPb3,Pm-3m,0.1554981122155834,0.3585445941920052
NiPd3,Pm-3m,-0.1361595299942412,-0.2424971417659324
NiPt3,Pm-3m,-0.2191078788963895,-0.4134352980276663
NiRh5,Pmmm,-0.1101196278262719,-0.210783135671647
NiSb,R-3m,-0.20731381707517277,-0.5235806496618318
NiSb2,I4/mmm,-0.1437763548733958,-0.2593649543156438
NiSn,P-6m2,-0.19598687079641436,-0.47689599979012065
NiSn2,I4/mmm,-0.1822255609045752,-0.3650120061768072
NiSn2,P-3m1,-0.2022630460964001,-0.4200690920243373
NiSr,Pm-3m,-0.0771936018942296,0.012717178319032
NiTa,P-6m2,-0.1262113552114233,-0.1893122649919626
NiTa2,Fm-3m,0.0724953925482131,0.3348858735799118
NiTa4,Im-3m,0.6996573243663052,1.1330128554170131
NiTa7,Fm-3m,0.2161705386195407,0.1144484798424573
NiV,P4/mmm,-0.2174754443932851,-0.5654623715132477
NiW,P-6m2,-0.0746071506908401,0.0233773832735609
NpPa,P4/mmm,-0.0888642708883328,-0.035384144168926546
NpPa3,Pm-3m,-0.4471761729136055,-0.8834334860211619
NpPb,F-43m,0.4315222350880954,2.109418279325548
NpPd,P-6m2,-0.1136269830389875,-0.1374450631648281
NpPd,R-3m,-0.1110396655536417,-0.1267812877802091
NpRh,R-3m,-0.148790637306717,-0.2823740534944972
NpSb,Fm-3m,-0.3403299334816546,-1.071814098369605
NpSn,P4/mmm,-0.2543468578129951,-0.7174299877985229
NpTa,P4/mmm,0.0494554336117178,0.5347083428991111
NpU,P4/mmm,-0.138671085832246,-0.2406657496129482
NpYb,P4/mmm,0.1023946094867375,0.7529001511234497
NpYb,R-3m,0.0799699201457306,0.6604755254032719
P12As17,I-43m,1.9915303403068458,0.35178615285837234
P12Br12,Pbcm,-0.0748198813245062,-0.2315816654446895
P12Br17,I-43m,0.4631705755909371,-0.08264289762983501
P16As8,Fd-3m,1.2549349347830148,0.225139976303974
P16Br4,I23,1.7405503681706698,0.521253130318742
P17Br12,I-43m,0.4736664218720973,-0.0796595028563917
P24As5,I-43m,1.4155192268235215,0.1880577121612113
P2As4,Cmcm,0.2674144635282264,0.3078929027404576
P2As6,Cmcm,0.3485023738389641,0.2508017661135596
P2Br2,Pmmn,0.0281390241854543,0.0960857510783442
P2Br6,Pm-3n,0.9951337082707862,0.9170836725758212
P3As,Fm-3m,0.3901774446965967,0.8421666666983804
P3As,Pm-3m,0.5162006807625137,1.1018726150911298
P3Br,Cmmm,0.8083914533879927,1.7040130146331556
P3Br,Im-3m,0.3338840350063904,0.726158430374329
P3Br,Pm-3m,1.3104841033858554,2.7387146452159428
P3Br,Pmmm,0.6301315630493453,1.3366589033915504
P3Br,R-3m,0.0885134931309975,0.2205041456989173
P3Br2,R-3m,0.1323770804195986,0.1977818084593536
P4As,Im-3m,0.7528965324780825,1.220784218641592
P4As2,C2/m,-0.0634063917148963,-0.1466060539126732
P4As8,Pa-3,0.3765877561714691,0.1016004082995636
P4Br16,I-43m,0.0676977180767004,-0.1682225530175247
P4Br2,Cmcm,0.1009893745098155,0.0792494296311708
P4Br6,Fdd2,0.3140377440836417,0.12129581796187
P4Br8,Pa-3,0.3237606745364458,0.0653121073874236
P5As,F-43m,0.8942149237701292,1.169024088077266
P7As,Fm-3m,1.209525855847866,1.1379910137638412
P8Br16,Fd-3m,2.6123214814215117,0.6913520964322578
PAs,Pm-3m,0.10243588683002512,0.753070278028936
PAs3,Fm-3m,0.305968383319609,0.6686304615438416
PAs3,Immm,0.2124347698735439,0.475878421960399
PAs3,Pm-3m,0.4078317165877957,0.8785482068636332
PAs4,Im-3m,0.3844912426772665,0.6134229213609389
PAs5,F-43m,0.8761464004764603,1.144200607770378
PBr,P-6m2,0.176332989007442,1.0576413651326468
PBr3,Fm-3m,0.4237573636145513,0.9113674344439217
PBr4,Im-3m,0.1608951562614126,0.2447973536177766
PI,R-3m,0.15660089943247782,0.9763144416729711
PI3,Pm-3m,0.580646464393525,1.2346810866102347
Pa3Bi,Pm-3m,-0.6268102432333984,-1.253619477528713
PaGe,F-43m,-0.0974173318393661,-0.070636068739206
PaGe3,Fm-3m,-0.4488337489133062,-0.8868493826484329
PaP,Pm-3m,-0.7182196583773238,-2.6293079773646237
PaPb,P4/mmm,-0.1197334998834139,-0.1626134177947402
PaRh,P4/mmm,-0.4078580144412549,-1.350134904218176
PaSb3,Pm-3m,-0.6978984338827837,-1.4001164771968264
PaSn,P4/mmm,-0.3874640487137497,-1.26608002075239
Pb16Sr4,I-43m,-0.5065851992745884,-0.4049165062159024
Pb16V8,Fd-3m,1.5267777571236751,0.3185079405430128
Pb24Sr5,I-43m,-1.2604263343717932,-0.5725671852917131
Pb24V5,I-43m,2.6673497447280896,0.5438846292395535
Pb2As2,Imma,-0.067971450744788,-0.1019766286972433
Pb2As4,Cmcm,-0.0947301465084344,-0.1896402630518129
Pb2As4,Pnnm,0.0383617849991742,-0.0067916214064623
Pb2As6,Pmmn,-0.0279788124154526,-0.1371203607118829
Pb2Br2,P6_3/mmc,-0.5287947310698875,-1.0516312383891373
Pb2Br4,C2/m,-1.4525356286439557,-2.0550642990152297
Pb2P,I4/mmm,-0.056883315587061,-0.0206085695826735
Pb2P2,P4/nmm,0.0872280513922988,0.21785513527612715
Pb2P4,I4/mcm,0.0103888573064117,-0.0452222893930701
Pb2P6,Pmmn,-0.0348139192260004,-0.1441631805600837
Pb2Rh3,R-3m,0.182798475570499,0.2809076614733226
Pb2Sb,P-3m1,-0.1055329602416295,-0.1542834113383255
Pb2Sb2,Imma,-0.08840741094127168,-0.14409061171993154
Pb2Sr,P4/mmm,-0.2065505554412181,-0.4318499002350422
Pb2Sr2,Cmcm,-0.6293991913347162,-1.25895472555901
Pb2Sr2,Pmma,-0.6760717915482212,-1.3551366066215147
Pb2Sr4,Fd-3m,0.1639593702297012,0.1657608961894301
Pb2Ta,P-3m1,0.3515998068547092,1.1017822955504106
Pb2Ta2,P4/nmm,0.1935110560084804,0.4368808433403044
Pb2Ta2,R-3m,0.6125357954990392,1.3003979277016358
Pb2Ta4,I4/mcm,0.8247418215951393,1.073578314470326
Pb2V,Fm-3m,0.3362467534646298,1.0595966434874369
Pb2V2,Imma,0.2924463496518362,0.6407645481812394
Pb2V2,P4/nmm,0.0923560702540606,0.2284228451956946