formula,space_group,formation_energy_value,formation_energy_value_per_atom
Sn2W4,I4_1/amd,1.0452114148726772,1.3764709481428348
Sn3As,Pm-3m,-0.3012380542486752,-0.5826873800038155
Sn3Br,P4/mmm,-0.2735522979222581,-0.5256331745399764
Sn3Ge2,P-3m1,-0.0123029885404743,-0.0407410271431269
Sn3P3,Cm,-0.0753842733871647,-0.1630618928861862
Sn3Sb,Immm,-0.11253569040642,-0.1938136461157793
Sn3V,Cmmm,0.1850421535520622,0.4194283130534344
Sn3W,Imm2,0.1133099913800843,0.2716042308548794
Sn3W,Pmmm,0.2315583799532112,0.5152879423589658
Sn4Br4,P2_13,-0.8032765017413418,-0.9359786823144588
Sn4Br8,Pa-3,-2.42814473071583,-1.8250435271992973
Sn4P,Im-3m,0.0369353332782353,0.0404343844040379
Sn4Ta2,Cm,0.0509954492762029,0.0105651659351203
Sn4W,I4/m,0.4063913272057636,0.6495278962840069
Sn4W2,Cmcm,0.4115314629935132,0.5058883581503514
Sn4W2,I4/mcm,0.0731190097512557,0.0409596679563859
Sn4W2,I4_1/amd,0.8037362740322275,1.0447197969374606
Sn4W8,Pnma,1.2482035977498525,0.7003360749318612
Sn6Sb2,Pm-3n,0.0408198655606208,-0.0662309498789556
Sn6W10,I4/mcm,1.91600346860058,0.8056289111316516
Sn6W2,Pmmn,0.7019497709360091,0.6149901266712285
Sn6W4,Fdd2,1.3483249790780036,0.9738704880305789
Sn8W4,I4_1/amd,1.1761871782694124,0.6508661171027218
SnBr4,Im-3m,-0.435211221546568,-0.7379571099201253
SnGe2,P-3m1,0.0296603023696111,0.2171877086319379
SnGe4,Im-3m,0.5564456722057499,0.8969108849785098
SnP,F-43m,-0.0826418789130041,-0.009738203631756
SnP,Fm-3m,-0.20045771174430907,-0.42666888774368694
SnP4,Im-3m,0.8676001140227758,1.4098871387635816
SnSb,F-43m,-0.1713636790859345,-0.3754101221812991
SnSb,Pm-3m,-0.1022297940784027,-0.0904709041062266
SnSb3,Fm-3m,0.0018254970525697,0.0418594057396983
SnTa,F-43m,0.5441526099349565,2.5736307409407253
SnTh,P-6m2,-0.3532083279220114,-1.1248931296072948
SnV,F-43m,0.3831977960965225,1.9102463702295205
SnW,Cmmm,0.1946352607425428,1.1330752134782012
SnW,F-43m,0.7265841956562833,3.325532841943254
SnW2,I4/mmm,0.287960508028921,0.5329442385143681
SnW3,Cmmm,0.225052439345367,0.5018806412255198
SnW3,I4/mmm,0.3049688939805309,0.6665707356169662
SnW3,Immm,0.1941225055870968,0.4381409053547875
SnW3,P4/mmm,0.31205857196151376,0.6811809900535946
SnW4,I4/mmm,0.7591138347713826,1.2310342038914952
SnYb3,Pm-3m,-0.6675686654438329,-1.3376135489840466
Sr16W4,I-43m,4.943975984589772,1.8415631204265928
Sr2As,I4/mmm,-0.6188317274522181,-1.5646766828090823
Sr2As4,Pnnm,-0.8835490467546636,-1.2733608370969527
Sr2Br,Fmmm,-2.687850017052478,-2.003441865463921
Sr2Br6,Pmmn,-3.109370126905635,-3.31215251621167
Sr2W2,Fd-3m,1.0855553867443886,2.275186430105027
Sr2W2,R-3m,0.712215179052905,1.505815036872843
Sr3As,P-6m2,-0.6159833306603649,-1.231307611195791
Sr3Br,Immm,-0.7312688464773313,-1.4688854988603497
Sr3Sb,Immm,-0.5874818839052631,-1.1725724486085711
Sr3Ta,I4/mmm,0.6287023890428696,1.3337136926323545
Sr4As2,Pnnm,-1.291888949974778,-1.8343595076220949
Sr4Bi2,I4/mmm,-1.1846135301044267,-1.686978937041774
Sr4Br,Im-3m,-0.4042068360342195,-0.6868425783770229
Sr4Br8,Pnma,-5.846776696700768,-4.173391034763961
Sr4V2,Cmcm,0.7861709922224427,1.02058769604558
Sr6Br18,Pmmn,-8.480561793056932,-3.1186434000882306
Sr6Br4,R-3c,-2.769665275768743,-2.4206354713234104
Sr8Bi12,Pnna,-3.4507257146807038,-1.6183606751231834
Sr8Bi6,I-43d,-3.009564995802772,-1.9430425330045016
Sr8Br16,Fd-3m,-11.001644980176454,-3.984542314879663
SrAs,Immm,-0.8609509401099911,-1.7361315414775316
SrAs,P-6m2,-0.5591234188606721,-1.9735838258632223
SrAs,P4/mmm,-0.9021828752338958,-1.8211014180629967
SrAs2,Fmmm,0.4865685018498308,1.4726363700980138
SrAs3,Pm-3m,-0.7439467726924792,-1.495011893913688
SrBi,P-6m2,-0.4199990447798025,-1.4001748475963705
SrBi,P4/mmm,-0.3969399637161563,-1.3051355405027616
SrBr,Fm-3m,-0.7559480423243543,-2.7848076461584688
SrBr,P-6m2,-0.79597539585605,-2.949782648151968
SrGe3,R-3m,-0.1187317247061986,-0.2065822990589267
SrI,Fm-3m,-0.6457217310606239,-2.3305036686029594
SrI,P-6m2,-0.662489495626428,-2.399612958840686
SrI,Pm-3m,-0.6138635816969743,-2.1991985037332538
SrTh,P-6m2,0.0110631861702288,0.3764725231570149
SrV,P-6m2,0.3841958146299106,1.914359760074414
SrW,Pm-3m,0.7369386544722845,3.368209329722011
SrW2,Fm-3m,1.992125046176198,5.609460682916796
SrW3,Pm-3m,1.356220742338499,2.8329677176357007
SrW4,Im-3m,3.489623607679721,5.7326144032630975
Ta10Ge6,I4/mcm,-1.819312202075424,-1.118785445066527
Ta12As12,Pbcm,-1.2008075316631257,-0.6183168154302581
Ta2Ge,I4/mmm,-0.3681857103165847,-0.5653277884058588
Ta2Ge2,Cmcm,-0.1974415720160311,-0.3687858432748248
Ta2Ge2,P4/nmm,-0.0523771874261989,-0.0698403094670173
Ta2Ge4,I4_1/amd,0.1871605545983635,0.1976358941575128
Ta2Ge6,I4/mmm,0.0551902135489909,-0.0514238993319382
Ta2P,I4/mmm,-0.5207614438956334,-0.7749442942071667
Ta2P2,P4/nmm,-0.1771284669860837,-0.3269250375116347
Ta2P4,I4/mcm,-0.9299179038263888,-1.337064792957926
Ta2P6,I4/mmm,-0.4632476688678048,-0.5856166646460979
Ta2Sb4,Cmcm,-0.06562514921133,-0.1496542987594327
Ta2V2,Cmcm,0.134025839267737,0.3142950003539956
Ta2V2,Imma,-0.1184029872359153,-0.2059048440184331
Ta2V4,Cmcm,-0.0829350894548925,-0.1734355980812226
Ta2W2,P-3m1,0.2291354885142829,0.5102949002927358
Ta2W2,P4/nmm,0.1022135609664476,0.2487369480084024
Ta2W2,R-3m,0.1294042713212292,0.3047709734834147
Ta3Sb,P4/mmm,-0.1480695446472223,-0.26704104134653156
Ta3Sb5,Cmmm,0.5170028738349928,0.4244228518839327
Ta3V,Cmmm,0.1154770805583163,0.2760701211768038
Ta4Ge2,I4_1/amd,0.585653305178289,0.7451060324573184
Ta4Sb8,Pnma,0.5456421178345482,0.2177282608454134
Ta4V12,Pnma,0.5155486906211252,0.0841222119502526
Ta4V6,Fdd2,0.2974239837294232,0.1076009073283887
Ta5Br4,I4/mmm,0.2477393586269319,0.1023481267190782
Ta5Sb4,I4/m,0.0449325380455892,-0.0834029364227713
Ta5V,Cmmm,-0.1039236816976836,-0.2022708215103986
TaBi,F-43m,0.5385935882464848,2.5507189185687733
TaGe2,I4/mmm,-0.2667214332481623,-0.5971816847989944
TaGe3,Cmmm,0.043379605301552,0.127493209705597
TaGe3,Immm,-0.0209165468579013,-0.0050069045260465
TaGe3,Pmm2,0.0467612504380282,0.1344620305731783
TaGe4,I4/m,0.0535940438569371,0.0678983116282469
TaGe5,Cmmm,0.125687586678562,0.1131811225217033
TaP,Pm-3m,-0.3959211863778759,-1.3009365920691447
TaP2,I4/mmm,-0.5149905534468955,-1.2793518340575063
TaP2,P-3m1,-0.1410191303999442,-0.2517889165503025
TaP2,P6/mmm,-0.0260471259906327,0.0641201636674416
TaP3,R-3m,-0.1117041275100618,-0.1920999793556752
TaP5,P4/mmm,0.2706047733217201,0.3122759168387601
TaSb3,Cmmm,0.2806752178511007,0.6165068553668198
TaSb3,P4/mmm,-0.0177354691392267,0.0015485913620871
TaSb4,I4/mmm,1.325499972689199,2.164791207417512
TaV,P-6m2,0.0259212178357482,0.437710741209516
TaV2,Fmmm,-0.0572988614528389,-0.1382152100833369
TaV3,Fm-3m,-0.0949766114399558,-0.1576282774627832
TaV5,Cmmm,-0.1043242676676177,-0.2028211674226935
TaW3,I4/mmm,0.1004358401783162,0.2450734596099796
TaYb,F-43m,1.281474265030838,5.612543653905912
Th6Bi8,I-43d,-2.244603112677329,-1.4926377220842493
Th6Ge4,P4/mbm,-1.9751107322855448,-1.7656751712811565
ThBr,F-43m,-0.2171918108959986,-0.5642933600085726
ThGe,R-3m,-0.4862508925740095,-1.6732355862551835
ThI,Fm-3m,-0.2670811739136475,-0.7699151920083742
UBi,F-43m,0.1828588888176842,1.084538230381347
UBr,Fm-3m,-0.3177477500030909,-0.9787403516517872
UGe,R-3m,-0.3006424883536267,-0.9082400480909956
UI,Fm-3m,-0.1400418480775799,-0.2463154237533456
UP,Fm-3m,-0.6594594149306371,-2.387124309836381
USb,P-6m2,-0.2686719822461895,-0.7764717985455659
V10W6,I4/mcm,0.8525511983405549,0.2577440744935833
V12As4,Pnma,-1.2460641311972327,-0.8234511508537826
V12W4,Pnma,0.3148366390024951,-0.0192835474689985
V16P8,Fd-3m,-3.1695608718862918,-1.2945108377064551
V18Sb6,Pmmn,-0.1817967359062895,-0.2683242619458397
V18W6,Pmmn,0.6220228437675813,0.0077580606382703
V26W2,Fm-3c,2.4072972997549784,0.4958461633657362
V2As2,Cmme,-0.2977167900305045,-0.5754308351643928
V2Br2,I4_1/amd,0.4709013231601737,1.00852068258287
V2Br2,Imma,0.0386115453289762,0.1176672952486502
V2Br2,P4/nmm,-0.27290217645906034,-0.5242934183454764
V2Br4,I4_1/amd,-0.121426333305887,-0.2263168777626428
V2Ge,I4/mmm,-0.3453461182084318,-0.8132190761258608
V2Ge2,P4/nmm,-0.31948762606263403,-0.6202957013234389
V2P,P-3m1,-0.3255567054191622,-0.7588436199056584
V2Sb2,Pmmn,0.0379651072173016,0.1163351296249882
V2W2,Cmcm,0.334244923550574,0.7269021416497821
V3Br,Cmmm,0.1054206051010125,0.2553459549225632
V3Br,I4/mmm,0.3541775280080039,0.767978820095388
V3Br,P4/mmm,0.07442195622681005,0.19146461243301055
V3Ge,I4/mmm,-0.3040318047403332,-0.5884446803530088
V3Ge,P4/mmm,-0.3399623588058056,-0.6624895859684274
V3P2,P-3m1,-0.7158829636462455,-1.2006788951687783
V3Sb,Immm,-0.22408185938022865,-0.42368556900282844
V3W,P4/mmm,-0.1717239803732434,-0.3157875888539166
V4As2,Cmcm,-0.5856950109474564,-0.8641534175410959
V4Br2,I4_1/amd,0.65533842765778,0.8408430906240367
V4P,Im-3m,0.2241403519041171,0.3490648143078503
V4P4,P2_13,-1.52993460399026,-1.6847193014774255
V4W2,I4_1/amd,0.8162576743397156,0.6477029991945775
V4W2,Pnnm,0.710587556492573,0.9167472272993192
V4W3,I4/mmm,-0.2493010850386408,-0.3809524809518811
V4W8,Pa-3,3.541648999369124,2.275763569384764
V6Br2,Cmcm,0.4977007077244072,0.4045341094889906
V6W18,Pmmn,2.208455747060695,0.5526391404730236
V6W2,I4/mmm,0.0821775151693285,-0.0236164767459755
V7P6,R-3m,-1.0852146400512923,-0.852713669149593
V8As16,Fd-3m,0.1884857301334274,-0.1411459176737414
V8As4,Pa-3,0.1857357235741361,-0.0295008332271679
V8W4,Pnma,-0.0021634866807208,-0.1585737040321519
VAs,F-43m,-0.0008447994432095,0.3273930867970781
VAs5,Amm2,0.0263131839695764,-0.0233446183239561
VAs7,Fm-3m,0.6983540670872995,0.611285152464408
VBr2,I4/mmm,-0.4107748023199128,-0.9929977581076921
VBr3,I4/mmm,-0.0392229185534059,-0.0427322778081963
VBr3,P4/mmm,-0.12683754554373602,-0.22328659862962844
VGe3,P4/mmm,-0.025389241421405865,-0.014224136361598333
VP3,Pm-3m,0.2068654674241444,0.4644013244055415
VP3,R-3m,-0.1244048437739264,-0.2182733396465417
VP4,Im-3m,0.0211372297374322,0.0143892734168856
VSb,P-6m2,-0.1657703103098248,-0.3523567363445766
VW2,I4/mmm,-0.23596974251308403,-0.4267873695438471
VW2,Immm,0.6263182863153475,0.8009737058708634
VW5,F-43m,0.4287791631930178,0.5295841488512727
VW7,Fm-3m,0.6543840450470514,0.565978919140738
W12As4,Pnma,1.395344325727645,0.5373881471457836
W16Sb4,I23,4.412575434809947,1.6225433776153348
W24P5,I-43m,2.616983778396693,0.5295683409968198
W2As,P-3m1,0.1486755301227859,0.5442063713453261
W2As3,R-3m,0.1393190832273353,0.2092265513763527
W2As4,Cmcm,0.2921640651737808,0.3418951971762734
W2P,I4/mmm,-0.1324722421778782,-0.2283045943378764
W2P2,I4_1/amd,0.1183600988706407,0.2820113827124484
W2Sb2,Fd-3m,0.6748746618303683,1.4288645097995474
W2Sb6,Cmcm,0.4322027337310358,0.3370457082037908
W2Sb6,Pm-3n,1.1667114644075316,1.093875529663534
W2Sb6,Pmmn,1.0841244454565948,1.0087787619914028
W3As,P4/mmm,0.23308417470665,0.5184322670554624
W3As2,P-3m1,0.6504751119384955,1.051929947081366
W3P,I4/mmm,0.1584621449739804,0.3646528085389535
W3Sb,Fm-3m,0.3995110381702888,0.8614011334575875
W3Sb,Pmm2,0.3279191541596639,0.7138661334479227
W4P3,I4/mmm,-0.454817335245888,-0.6229658671285491
W4Sb16,I-43m,3.6618072046051697,1.3131100043182182
W4Sb2,Cmcm,0.5355085851644563,0.6762145990221404
W4Sb2,Pnnm,0.7674278182401079,0.9948373454122172
W5As,Cmmm,0.1618165622954622,0.1628169948150626
W5P,F-43m,0.8630869509029766,1.1262588543665597
W5Sb,Cmmm,0.2840065855699186,0.3306880259531958
W5Sb,F-43m,0.7095862337437855,0.9153715578474568
W5Sb24,I-43m,2.4299574017686574,0.4764069760547965
W6As10,I4cm,0.9565294322587412,0.311313096157575
W6As6,P-3m1,0.8050843828941948,0.3959459229312524
W8Br,I4/mmm,1.3399220970054804,1.1026798917822862
W8Sb16,Fd-3m,3.260666309439175,0.9140345869821088
WAs2,I4/mmm,-0.0060079997125065,0.1191817587349917
WAs2,P-3m1,-0.10352507517099778,-0.1487663367330328
WAs2,P4/mmm,0.2351668917696238,0.7818590646684666
WAs3,Imm2,-0.0268458357499791,-0.0172258543251629
WAs3,P4/mmm,0.0633485891925842,0.1686448580980208
WBr2,I4/mmm,0.2405499149427991,0.7966500210248895
WP,F-43m,0.0863484814864651,0.6867651268147182
WP,Pm-3m,-0.2869786377427159,-0.553301884099946
WP3,Fm-3m,0.20170713861317585,0.4537711524008048
WSb,F-43m,0.5621328793766633,2.647737438617861
WSb,P-6m2,0.1013491724865758,0.7485913233852082
WSb,Pm-3m,0.2802063840725485,0.904790084434718
WSb3,Pm-3m,0.7316346084395896,1.5458341752758358
YbBi,F-43m,-0.2046428471719181,-0.512572096104448
YbBr,Fm-3m,-0.7675550346350457,-2.8326465215934524
YbGe,P4/mmm,-0.5080003856671038,-1.762877352442637
YbP,R-3m,-0.5160047260447006,-1.7958676941274805