formula,space_group,formation_energy_value,formation_energy_value_per_atom
Pb2V4,Cmcm,0.4630912138036352,0.5767238347446976
Pb2V4,Fd-3m,0.4133732555822079,0.5084187089328557
Pb2W2,R-3m,0.3711192951137572,0.802892045870255
Pb3As,Fm-3m,-0.0025658239509463,0.03280986676961
Pb3As,I4/mmm,-0.0436501979730837,-0.051855919101503
Pb3As,Immm,-0.0972493374205494,-0.1623118618131977
Pb3Sb,Pmmm,-0.095546089327154,-0.1588018451269729
Pb3Ta,I4/mmm,0.4802944140028024,1.0278777602280444
Pb3V,Immm,0.1942713341497428,0.4384476080249977
Pb3V,P4/mmm,0.2454714897768477,0.5439597769716717
Pb3V,Pm-3m,0.223630815548233,0.4989509897737885
Pb3W2,P-3m1,0.8605703593877961,1.398297726198484
Pb4As16,I23,1.3408681231915387,0.3565218319830039
Pb4As2,Pnnm,-0.0249082572852887,-0.0937153075947313
Pb4As3,I4/mmm,0.0786420388572278,0.0052292725948996
Pb4As4,Pnma,0.0275686590756421,-0.0798848491715015
Pb4I8,R-3m,-1.9156635496145435,-1.473006830565219
Pb4P,I4/mmm,0.346676787666331,0.5510811551397748
Pb4P2,Cmcm,-0.0629723943740948,-0.1460098057153232
Pb4Sb2,I4/mcm,-0.0505442582465271,-0.1289353836720956
Pb4Ta2,I4/mcm,0.3190604644999877,0.3788468743083066
Pb4V,Im-3m,0.2057945803606347,0.3188195602011886
Pb4V4,P2_13,0.7976978027537502,0.7136478591109796
Pb4V4,Pnma,0.6332016569339669,0.5441528164081655
Pb5As,Cmmm,-0.04468227924201815,-0.12088189097583285
Pb5P,Amm2,0.0523415913695285,0.0124145661988181
Pb5Sb3,Cmmm,-0.0639701076147323,-0.1742054005243953
Pb5Sr24,I-43m,0.1580901358382729,-0.1693605728945398
Pb5W,P-62m,0.7283459596630382,0.9411446483956116
Pb6As18,Pmmn,0.7853978697428586,0.063871344967316
Pb6As2,Pm-3n,0.1578729172909641,0.0543792437681661
Pb6As2,Pmmn,0.3679177594743805,0.2708071686776527
Pb6Br2,P6_3/mmc,-0.0335722958141139,-0.1428838252768962
Pb6P2,I4/mmm,0.2392485048502543,0.1382277656869677
Pb6Sb18,Pmmn,0.4927127113275381,-0.0366551915397749
Pb7I14,P3m1,-3.268619585359198,-1.4819415298939809
Pb8As4,Pa-3,0.0125999417049082,-0.1484323198183899
Pb8Sb4,Pnma,-0.0792943510679979,-0.2115569075306266
Pb8W4,P6_3/mmc,4.261035482383458,2.7699289171529613
PbAs3,Cmmm,0.1888637233376865,0.4273037210853747
PbAs3,Fm-3m,0.2031699201714216,0.456785620872928
PbAs3,Immm,0.08103947637532015,0.20510185426100197
PbAs3,P4/mmm,0.1305951081268283,0.3072250241143426
PbGe2,I4/mmm,0.0287663357614188,0.21473135266606305
PbGe5,P4/mmm,0.2352454016027905,0.2636973665464782
PbI2,P-3m1,-0.6206423790782255,-1.5696518182144836
PbP3,I4/mmm,0.5274835238112978,1.1251240530483204
PbP3,P4/mmm,0.335941589113456,0.730398593200059
PbRh2,P-3m1,0.0300949576879293,0.2183820129543434
PbRh3,P4/mmm,0.0216852335309481,0.0827859194363437
PbRh3,R-3m,0.1888489976465713,0.427273374700881
PbSb,Cmmm,-0.09626667390015639,-0.06589356694815865
PbSb,P4/mmm,-0.1302945719056004,-0.2061414735912355
PbSb3,I4/mmm,0.0521976237948834,0.1456651907405673
PbSb3,Immm,-0.0317754528988304,-0.0273847023028958
PbSm,R-3m,-0.449843765676538,-1.5231815531367594
PbSn3,P4/mmm,-0.1365880111248775,-0.2433801463758292
PbSr3,I4/mmm,-0.3449555925714444,-0.672779533688653
PbSr7,Fm-3m,-0.1967321730608061,-0.3110019913499887
PbTa3,I4/mmm,0.1987822714980296,0.44774364976101777
PbTa3,P4/mmm,0.0598541323230393,0.1614435572605466
PbV,F-43m,0.564793495777759,2.658703319630382
PbV3,Fm-3m,0.1990328297771149,0.448259994821888
PbV4,Im-3m,1.7715544660245066,2.9001667387419183
PbYb,P4/mmm,-0.4086349718165948,-1.353337177994384
Pd12Sb4,Pnma,-1.4483491260118082,-0.9276672820687898
Pd12Ta18,P4_2/mnm,-1.386638316303008,-0.5966502691313902
Pd16Sb4,I-43m,-0.2395628524755515,-0.2948617353937516
Pd16Ta14,P4_2/mnm,-1.4113768645875702,-0.6034476908817111
Pd18As6,Pmmn,-1.683364210532454,-0.7840572030117245
Pd2As4,Cmcm,-0.3078307002019311,-0.4824089255495866
Pd2Ge4,Imma,0.1255064786427173,-0.0708738732690635
Pd2P,I4/mmm,-0.4318645911189713,-0.7874698853523145
Pd2P2,Cmme,-0.2080973702067048,-0.3907450808041893
Pd2P2,P-3m1,-0.2011824012373445,-0.3764948629050487
Pd2P2,R-3m,-0.3178908292529819,-0.6170050571312494
Pd2Pt,P-3m1,-0.1110258799878546,-0.1693763309899841
Pd2Pt2,R-3m,-0.1538441338774454,-0.2789411894416751
Pd2Pt7,P-31m,-0.1763287575858546,-0.2860564802132247
Pd2Rb,I4/mmm,-0.0465585269280603,0.0077608974494535
Pd2Rb2,P2_1/m,-0.0610794900478428,-0.0877738257462897
Pd2Rb2,P4/nmm,0.29183645960116716,0.639507700008086
Pd2Rb4,I4/mcm,0.0503930725131857,0.009737589299717
Pd2Rh2,Cmme,-0.0163086256075541,0.0044889995294135
Pd2Rh2,P4/nmm,-0.10235179324962185,-0.17282689199007906
Pd2Sb,I4/mmm,-0.4002267223227896,-0.9640147524875472
Pd2Sb,P-3m1,-0.3751482211923894,-0.8951064450604678
Pd2Sb2,P-3m1,-0.2730539234881423,-0.5246061353279453
Pd2Sb4,Cmcm,-0.442625435640559,-0.6675969681056332
Pd2Sn,Immm,-0.457233852458743,-1.120653493715266
Pd2Sn2,Pmma,-0.5143638800099292,-1.021892453878948
Pd2Sn8,Ccce,-0.7840918347647876,-0.7839048184788309
Pd2Ta2,P4/nmm,-0.4320024073753347,-0.8521637194858489
Pd2V,Immm,-0.3256814671040242,-0.7591864281337456
Pd2V2,Cmcm,-0.210956985680533,-0.3966381142784345
Pd2V2,Pmma,-0.2933070401458299,-0.5663433183561812
Pd2V4,Pnnm,0.4114586975134719,0.5057883891362007
Pd2W,I4/mmm,-0.0867036121453079,-0.1025459290810627
Pd2W,Immm,-0.1911059362687945,-0.3894126524707637
Pd2W2,Cmcm,-0.0032625868722943006,0.03137399287093525
Pd2W2,Cmme,-0.1434278714647825,-0.2574755820423108
Pd2W4,I4/mcm,0.4174079406483199,0.5139617698490854
Pd3As,Immm,-0.385231334268775,-0.755778907623596
Pd3P,P4/mmm,-0.3400152797059983,-0.6625986442104104
Pd3Pt,R-3m,-0.1077341937137579,-0.18391882599213
Pd3Pt2,R-3m,0.0260639890375383,0.0225116402849612
Pd3Pt9,C2/m,-0.1972826897332773,-0.2926061762975483
Pd3Rb,P4/mmm,0.03824972933407265,0.1169216727028925
Pd3Rh6,P-62m,0.9052112683089768,0.7045276089439328
Pd3Sb,Immm,-0.473381369063159,-0.9374365852216784
Pd3Sb,Pmm2,-0.4321204377407994,-0.8524069539000655
Pd3Ta,I4/mmm,-0.5643442423100161,-1.124890899224122
Pd3Ta,P4/mmm,-0.3779514412700115,-0.7407766622086894
Pd3V,Immm,-0.3469002126079128,-0.6767869644339674
Pd3V,Pmmm,-0.3379889376496436,-0.6584228025010413
Pd4As2,Cmcm,-0.4241329632154945,-0.6421910443558991
Pd4As2,Pnnm,-0.5311866678077708,-0.7892670109157599
Pd4Ge2,Imma,-0.1507775023652999,-0.2606605495289901
Pd4Pt4,Imma,-0.1986125361372091,-0.3129394970486382
Pd4Pt5,C2/m,-0.1975994138787225,-0.305538305374723
Pd4Pt8,P2/m,-0.1986956947964448,-0.2935768063481889
Pd4Pt8,Pm,-0.2038346975843837,-0.2971069214668977
Pd4Rh,I4/m,-0.0876800044897089,-0.1650092813172835
Pd4Rh5,I4/mmm,0.0365745461309215,-0.0910580334231103
Pd4Sb2,I4/mcm,-0.5505504677854772,-0.8158700099323716
Pd4Sn12,Cmce,-1.3570476257934023,-0.8806292447906894
Pd4Sn4,Pnma,-0.8357792464387629,-0.969469157565372
Pd4Ta2,I4/mcm,-0.1497484718195916,-0.2652273098005631
Pd4V4,Pnma,-0.309335813300271,-0.427027559704582
Pd4W2,I4/mcm,0.2817753430327743,0.3276226285059072
Pd5Pt7,P2/m,-0.1971063980487675,-0.2924850769390792
Pd5Rb,P4/mmm,0.0615449008864222,0.0250585531388493
Pd5Rb4,I4/mmm,0.3847573747441156,0.2278431277767266
Pd5Sn,P4/mmm,-0.4436361905025554,-0.6689855958868892
Pd5Sr,P6/mmm,-0.6549916776086819,-0.9593567948309608
Pd6Ge4,Fdd2,-1.007199512295443,-0.9678150013803254
Pd6I4,R-3c,-0.1515215592116117,-0.2624699832340926
Pd6P2,Cmcm,-0.2333847532982619,-0.3487684120862047
Pd6Pt4,P2/m,-0.2004035244853815,-0.3027639402757471
Pd6Pt6,Cc,-0.2181951373351154,-0.3069714822712506
Pd6Rh10,I4/mcm,1.0039060155120378,0.3357212546636971
Pd6Sr2,Cmcm,-0.8033442216249518,-0.9360484601472894
Pd6V18,Pmmn,-0.0922533273645183,-0.2375694099523862
Pd7Pt5,P2/m,-0.1950970735834373,-0.2911048195299763
Pd7Sb6,R-3m,-0.833708321170514,-0.6932371273973741
Pd8Sb4,Cmc2_1,-1.380427548597139,-1.105339254337554
Pd8Sn16,I4_1/acd,-3.1027831261129104,-1.2715751496288814
Pd8V4,Pnma,-0.7340277274670424,-0.6613103492244045
PdAs,Cmmm,-0.2031766087518975,-0.5065289115088366
PdAs3,Imm2,-0.0680446361401286,-0.1021274475707998
PdAs3,Pmm2,-0.1863649393413008,-0.3459593591787943
PdBi,Pm-3m,-0.2750149091998889,-0.8026145308149516
PdBr,Fm-3m,-0.1892574051967913,-0.4491601266244396
PdGe2,Immm,-0.2056014013821432,-0.4292419054685963
PdP2,I4/mmm,-0.0439242031762608,0.0149992403634726
PdP2,P-3m1,-0.304989060629766,-0.7023298122092068
PdP3,Cmmm,0.1209540462785139,0.287356933205139
PdP8,I4/mmm,0.7221124636282844,0.5368271463463284
PdPt3,Immm,-0.0841927875771241,-0.1354052074082085
PdRb2,P4/mmm,-0.0376588431750482,0.0322145974878877
PdRh2,I4/mmm,-0.09750523005671816,-0.1322255819390653
PdRh2,P4/mmm,0.3909475368425423,1.2098982256237822
PdRh4,I4/m,-0.0765688406699778,-0.1466911652134178
PdRh4,I4/mmm,0.3003472885612728,0.4747012945410721
PdSn2,I4/mmm,-0.3534426649061457,-0.8354659929588395
PdSn3,Cmmm,-0.3661232781383529,-0.7164014404658926
PdSr,R-3m,-0.3094157250553833,-0.9443994394735816
PdSr5,C2/m,-0.3815185258521119,-0.583645106235451
PdTa,P4/mmm,-0.4020940360628557,-0.7905291973210073
PdTa2,I4/mmm,-0.1824056064775605,-0.3655067181864938
PdTa4,I4/mmm,0.7202366215297257,1.166940350402378
PdU,P-6m2,-0.2405813834855685,-0.6606948066227201
PdV3,Cmmm,-0.1706387157111347,-0.3135510990038811
PdW,P4/mmm,-0.0359505990815153,0.1827025475955094
PdW2,Fmmm,-0.0917003859842837,-0.1162755864497141
PdW3,Cmmm,-0.0741944499991981,-0.1148008504333729
PdYb,P-6m2,-0.4293580409248277,-1.4387484796617542
Pt10Sn6,I4/mcm,-1.0525243409017913,-0.7237405015332855
Pt16Rb8,Fd-3m,1.818464035132213,0.4186913985413666
Pt24Ge16,Pnma,-5.260381064443502,-1.3094502092155915
Pt24W5,I-43m,0.0655349977810103,-0.1956689341012976
Pt2As,I4/mmm,-0.16671516932973354,-0.3223940352942498
Pt2As,P4/mmm,-0.2177500590798231,-0.4626228254488297
Pt2As2,P4/nmm,-0.2389277289320258,-0.4542796146092104
Pt2As4,Pnnm,-0.7915186419092018,-1.1469246638034398
Pt2Br4,Cmcm,-0.3788284668859035,-0.5799493628320352
Pt2P2,Imma,-0.1284531904150848,-0.2266160844980922
Pt2P4,C2/m,0.1478895247299916,0.1436833037479636
Pt2Rh,Fm-3m,0.1816637685453904,0.6348482985834376
Pt2Rh,P-3m1,-0.0279699379850322,0.0588368447264249
Pt2Rh2,I4_1/amd,-0.1602235025356505,-0.2920876538497114
Pt2Rh2,P-3m1,-0.0953038235486262,-0.1583025890711869
Pt2Sb,I4/mmm,-0.3848143385379695,-0.5881730657135363
Pt2Sn2,I4_1/amd,-0.342622878218593,-0.6679723266032883
Pt2Sn2,P4/nmm,-0.1771684757663537,-0.327007486737257
Pt2Th2,Cmcm,-1.2309576551569428,-2.49863334545194
Pt2V,Immm,-0.8694232834471569,-1.2539541262338405
Pt2V2,Cmcm,-0.5113004520510747,-1.0155794080611829
Pt2V2,Imma,-0.5313929928043757,-1.056985679752434
Pt2V2,P4/nmm,-0.4966654200239856,-0.985419851847554
Pt2V4,Cmcm,-0.5030665945199814,-0.7506341866310957
Pt2W2,Fd-3m,0.019582850985856205,-0.0881259249663333
Pt3As,P4/mmm,-0.14620802926513515,-0.26320487086841604
Pt3Bi,I4/mmm,-0.1675344802879668,-0.3071539580497595
Pt3Rh,P4/mmm,-0.1497423130618682,-0.2704882461726305
Pt3Sb,P4/mmm,-0.2495702474391239,-0.47621148565502
Pt3V,I4/mmm,-0.5480941484435797,-1.091403058641718
Pt3V,P4/mmm,-0.5183108656004437,-1.030026316078304
Pt3V,Pm-3m,-0.534506172092777,-1.0634012520298193
Pt3V,Pmmm,-0.5130116689832801,-1.01910584675739
Pt4As8,Pa-3,-2.385348182369299,-1.795645461352513
Pt4Rb16,I-43m,0.7037165562921198,0.0939162092151689
Pt4Rh8,Pa-3,1.8854209866479823,1.13805732772681
Pt4Sr2,Cmcm,-0.6887723711467374,-1.0057664746462862
Pt4V12,Pnma,-0.721142363094,-0.5530143054891241
Pt4V2,Cmcm,-0.5556601823078885,-0.8228900024220366
Pt4V8,Pnma,-0.8622846616377872,-0.7494133842058193
Pt5V,F-43m,-0.0253091628757909,-0.0942660926184436
Pt6As2,Cmcm,-0.2717278419940854,-0.388276714383916
Pt6As2,I4/mmm,-0.2249690103553208,-0.340096921928299
Pt6Br4,R-3c,0.9012668374787364,0.6053554037487904
Pt6Sn2,I4/mmm,-0.7147599437125693,-0.8447721819540802
Pt6V2,Pm-3n,-0.5874536933710696,-0.71359720377795
Pt7Sb,Fm-3m,-0.4035282198462173,-0.5240823927538433
Pt8Sn4,I4_1/amd,-1.0359217518375312,-0.8686892325710498
Pt8Sr16,Fd-3m,-3.0156719551563675,-1.241655681369025
Pt8V,I4/mmm,-0.6875176708450167,-0.7542551523882146
PtAs3,P4/mmm,0.0352285302326137,0.1106956511974829
PtAs3,Pmmm,0.0199520689522858,0.079214251506893
PtBi,Fm-3m,-0.215892122345969,-0.5589366201241265
PtBi3,Pm-3m,-0.0368847783658581,-0.037913889280507
PtBr5,Amm2,-0.2573684492762559,-0.4130812515756084
PtGe,Fm-3m,-0.315662909862109,-0.9701475650679262
PtGe3,Cmmm,-0.0521807640543974,-0.0694355244475819
PtP3,Pmmm,0.2099185470241603,0.4706930445501182
PtRb3,Pm-3m,-0.0609279094418842,-0.0874614517249795
PtRb5,F-43m,0.4534469067044059,0.5634739823101506
PtRh,R-3m,-0.1370281859597819,-0.2338944448470644
PtRh3,P4/mmm,-0.1480226552075974,-0.2669444126075183
PtRh3,R-3m,0.02528865860437257,0.09021177958221727
PtRh7,Fm-3m,-0.1364668727249127,-0.2489052801898318
PtSb,P4/mmm,-0.1829477579082418,-0.4231545583776538
PtSb3,P4/mmm,-0.07961952789166606,-0.12598073315302463
PtSm,F-43m,-0.4937942324486569,-1.7043258882875711
PtSm,Pm-3m,-0.7418576613812246,-2.726733343985549
PtSr,Fm-3m,-1.224163648245162,-1.3696562284612632
PtTh,P-6m2,-0.5248879317041666,-1.8324803287903888
PtTh,R-3m,-0.5822493314831739,-2.068898583007425
PtV,F-43m,0.12548853580525285,0.8480830749062543
PtV3,Cmmm,-0.3358400183496935,-0.6539943562697359
PtV3,I4/mmm,-0.3565646194323767,-0.6967031641631025
PtV3,Immm,-0.4111688641727483,-0.8092304060373753
PtV3,P4/mmm,-0.3977782127441777,-0.7816352423404627
PtV3,Pm-3m,-0.3492355743007918,-0.6815996271001759
PtV5,F-43m,-0.2490897144456037,-0.4017074935935908
PtW,Pm-3m,0.0116088908999259,0.3787216760718674
PtW2,Fmmm,-0.183859315771272,-0.3695010815816509
PtYb,Fm-3m,-0.5427750196264458,-1.9062029735637742
PtYb,R-3m,-0.5306075902821017,-1.8560542251897547
Rb2Sb4,C2/m,-0.7923286750538141,-1.148037529613578
RbBi,F-43m,0.1403475604988168,0.9093253857800184
RbRh,P-6m2,0.32165972477321747,1.6566137279615463
RbSm,F-43m,0.5238607582033346,2.4899967260857263
RbSn,P-6m2,-0.1244691409620963,-0.1821316304034624
RbSr,P-6m2,-0.0890654097656675,-0.036213149430616
RbTa,Fm-3m,1.247287421920667,5.471640646021921
RbTa,P-6m2,0.5450372237840141,2.5772767269636625
RbTh,P-6m2,0.1777822544731037,1.0636145947366809
RbU,Fm-3m,0.9054454581574336,4.062719653814823
RbU,P-6m2,0.3766616563045305,1.8833073003167469
RbW,F-43m,1.389041293482743,6.055887246912521
RbW,P4/mmm,0.8221900701641529,3.719577862307552
Rh2As,Fm-3m,-0.4537497292528385,-1.1110801531181578
Rh2As6,Pm-3n,0.2766689569728416,0.1767853932767671
Rh2Ge2,P-3m1,-0.187615483473483,-0.3485364533718484
Rh2Sb2,Cmme,-0.3008906333029201,-0.5819714224627661
Rh2Sb4,Fd-3m,1.038199944738532,1.366838224540111
Rh2Sn,P-3m1,-0.2658624628880044,-0.5948214881771652
Rh2Sn2,R-3m,-0.1620879595291136,-0.2959298863366755
Rh2Sr2,P4/nmm,-0.0962336130097746,-0.160218679003101
Rh2W2,Pmma,-0.286137102133532,-0.5515676657898
Rh2W2,Pmmn,-0.1851400684557937,-0.3434351718550147
Rh3As,Cmmm,0.0254008171358641,0.0904429134484839
Rh3As,Pmmm,-0.1547296602983345,-0.2807660630613586
Rh3Ge,Fm-3m,-0.3173695712827559,-0.6159308600249
Rh3Ge2,R-3m,-0.4267930836536375,-0.7240787772987286
Rh3P,P2/m,-0.3437717956844145,-0.6703399907690468
Rh3P,Pm-3m,-0.3113468328567605,-0.6035193314554667
Rh3Sb,Imm2,-0.2098644520384452,-0.3943866446722979
Rh3Sb,Immm,-0.3240037809411759,-0.6296024952325144
Rh3Sb,P4/mmm,-0.1083705692882045,-0.1852302549575725
Rh3Sb,Pmmm,-0.1797256144571382,-0.3322771826250423
Rh3Sb3,Cm,-0.2804814161635709,-0.444835051763698
Rh3Sn2,R-3m,-0.2892541631586388,-0.4973290006503315
Rh3Sr,P4/mmm,0.0387420012195983,0.1179361359153009
Rh3Sr3,Cm,-0.0863654117019003,-0.1781483538145432
Rh3Ta,I4/mmm,-0.5684107659933663,-1.1332711029295215
Rh3Ta,Imm2,-0.4646247584982671,-0.9193911523122128
Rh3Ta,Pmm2,-0.4992925115338014,-0.9908337049858308
Rh4As12,Im-3,-1.687320050714873,-1.0507838052110774
Rh4Ge2,Cmcm,-0.4230459193322176,-0.6406976067356425
Rh4Sm2,Fd-3m,-1.3517564182209512,-1.9166085600143736
Rh4Sr2,Cmcm,0.0659417711643012,0.0310992030016476
Rh4W2,I4/mcm,0.088569853809796,0.0621868439119527
Rh4W2,I4_1/amd,-0.1886445316534294,-0.3186647468067795
Rh5As,F-43m,0.4796409762006656,0.5994607620668269
Rh5W3,Cmmm,-0.44295740678929085,-0.5647097988936517
Rh6P4,Fdd2,-1.232950645909053,-1.153904215039923
Rh6Sb2,Cmcm,-0.3284829347792151,-0.4467565457944148
Rh6Sb4,Fdd2,-0.2478382323923691,-0.3418649066952213
Rh6W2,P6_3/mmc,-0.6589255763901073,-0.7872410560639128
Rh6W4,Fdd2,-0.2695597090893726,-0.3597701657004278
RhBi,P-6m2,-0.1119074034366513,-0.1303577185543794
RhBr,P-6m2,0.0565128012595846,0.563795682906582
RhBr,R-3m,0.012760825473707,0.3834694395845224
RhGe3,Imm2,-0.2218741420191076,-0.419135953003814
RhGe3,R-3m,-0.0378803578636628,-0.0399655578913852
RhSb,F-43m,-0.2026519207278277,-0.5043663801351762
RhSb,Pm-3m,-0.2194874294243188,-0.5737548816399252
RhSn3,R-3m,-0.28028310923469085,-0.5395038843385542
RhSr,F-43m,0.223578300786592,1.2523655903746884
RhSr2,I4/mmm,-0.2387554964287447,-0.5203395576790965
RhSr8,I4/mmm,-0.0225901418774653,-0.1452470575718608
RhTa,F-43m,0.1600409322667059,0.9904927316075054
RhTh,P4/mmm,-0.4066076868795609,-1.344981608439587
RhU,F-43m,0.05686184951489315,0.5652343050370647
RhU,P-6m2,-0.2276122123950326,-0.6072416342859344
RhU,P4/mmm,-0.2984626020345976,-0.899255523307396
RhV,F-43m,0.16183279571395084,0.9978779981739602
RhV,P-6m2,-0.2478365064412985,-0.6905972063188894
RhW3,Imm2,-0.0309851590797104,-0.0257560819610397
RhW4,I4/mmm,1.1176531920192982,1.8221303015126844
RhYb,P-6m2,-0.2896770057415805,-0.8630451911702272
RhYb,Pm-3m,-0.37601488448900283,-1.2188916427022187
Sb2As4,Pnnm,0.0107170326853494,-0.044771424929834
Sb2Br,I4/mmm,-0.1160842149527154,-0.1832751401339341
Sb2Ge2,Imma,0.1039183619749552,0.25225016490837
Sb2Ge2,P4/nmm,0.1153917242321313,0.275894220713245
Sb3Ge,Cmmm,0.0937547629285733,0.2313052406878584
Sb3Ge,Immm,0.07574850613032084,0.1941983376692153
Sb3Ge,P4/mmm,0.09394482254463,0.2316969114176385
Sb3Ge,Pmmm,0.0911435091690229,0.2259240256414247
Sb3Ge5,Cmmm,0.3513878366975723,0.253774915715332
Sb4Br12,Pnma,-2.313534818938535,-1.373406254364039
Sb4Ge2,Cmcm,0.14186984530407612,0.135413153982302
Sb4Ge2,I4/mcm,0.2194909466592547,0.242053074111488
Sb5Ge,Amm2,0.0912073318859704,0.0658103489444144
Sb5Ge,Cmmm,0.2758416841560183,0.31947065826014
Sb6Ge2,Cmcm,0.2373198922935978,0.13624054424771395
Sb6Ge2,Pmmn,0.1939690039513055,0.0915722595644257
Sb8P4,Pa-3,0.4724973716168376,0.1674832259364501
SbGe,Cmmm,-0.0037905603753855,0.3152519664686188
SbGe,Pm-3m,-0.1479620751807137,-0.2789590878190646
SbGe2,I4/mmm,0.049643894022788945,0.27209671096721544
SbGe3,Cmmm,0.1322806999391318,0.3106986551198846
SbGe3,Imm2,0.1408498155674974,0.3283577025354565
SbGe3,Immm,0.1342671924744309,0.3147923758015621
SbI,Fm-3m,-0.0652951288502112,0.0617574080859629
SbP,Fm-3m,-0.115149072949176,-0.21744928574464306
SbP,Pm-3m,-0.0059656863577202,0.3062870616820048
SbP2,I4/mmm,-0.0873162024387172,-0.1042291461140743
SbP3,Cmmm,0.3166939789275914,0.6907335360752019
SbP3,Im-3m,0.0417250227462197,0.1240834819034802
SbP3,Imm2,0.1037156481397121,0.2518324166384665
Sm3W,I4/mmm,-0.0872421441485801,-0.14168925521637174
Sm4Sb8,Cmce,-3.318954516349631,-2.436964014874444
SmBi,P-6m2,-0.5718927767644757,-2.0262134568471337
SmI3,Pm-3m,-0.9196352310554438,-1.857066853976356
SmP,F-43m,-0.767655465295932,-2.833060452243821
SmSr,P-6m2,-0.2051450243560461,-0.514641847777813
SmTh,P4/mmm,-0.2413145686402825,-0.663716670715353
SmW,F-43m,1.0281186895026244,4.568324316628624
SmW,P-6m2,0.1348329612935074,0.8865966531854724
SmW,P4/mmm,0.1405559836023967,0.9101844133922576
SmYb,P-6m2,-0.2753574788932147,-0.8040264511857199
SmYb3,Pm-3m,-0.2513693468021501,-0.4799190305563676
Sn12Sb17,I-43m,0.4286889045485888,-0.0924441498977907
Sn17P12,I-43m,1.2325811350799476,0.1360584229041705
Sn2Br4,Fd-3m,0.1995686185541915,0.214682740003627
Sn2Ge2,R-3m,0.1217610634173076,0.2890200166010454
Sn2P4,Fd-3m,0.417255375831436,0.5137521683412097
Sn2P4,Pnnm,-0.2161313164606135,-0.3564275263251181
Sn2Ta2,R-3m,0.2221653309919004,0.49593095102190154
Sn2Ta6,Pm-3n,-0.3399978300761345,-0.4586213688900757
Sn2W,I4/mmm,0.26993823162731995,0.5476763327421699
Sn2W,P4/mmm,0.2133614265020435,0.7219440922211098
Sn2W2,Cmcm,0.2702274937530401,0.5949764124093532
Sn2W2,Imma,0.3988216408498496,0.8599804384293278
Sn2W2,P4/nmm,0.3201257598567472,0.6978056756956795
Sn2W4,Cmcm,0.5864193298769532,0.7461584371675887
Sn2W4,I4/mcm,1.0426664504191547,1.3729745431535083