formula,space_group,formation_energy_value,formation_energy_value_per_atom
AuMn,P-6m2,-0.0565875134582243,0.0976463375280288
AuMo,F-43m,0.8284135168873594,3.7452281500477698
AuNb3,Imm2,-0.1067520283605968,-0.1818948009592559
AuNb3,Immm,-0.1559316882324106,-0.2832431761268453
AuNb3,Pmm2,-0.054305093511185495,-0.07381329646404765
AuNi,F-43m,0.2829410256995843,1.4970324193496676
AuNi,Fm-3m,0.061377397665424,0.5838453921913945
AuNi,P-6m2,-0.0632331154851362,0.0702561128215756
AuNi2,Immm,-0.0669571051110189,-0.0482883651917943
AuNi3,Imm2,-4.59210564594072e-05,0.0380028279369303
AuNi3,Pmmm,-0.0551773700062748,-0.0756108649243543
AuNi5,Amm2,0.0224184210736323,-0.0286954468601952
AuNp,F-43m,0.6459427567056617,2.9931645892906587
AuP,F-43m,-0.0466877803840581,0.1384486474372364
AuP,Immm,0.032703373437255,0.1054918629053299
AuP2,I4/mmm,-0.1864512699591506,-0.3766230054592602
AuP2,P-3m1,0.0165330480477442,0.1811178944201096
AuP3,Cmmm,0.3195922365282224,0.69670620240528
AuP3,Imm2,0.25743593305739443,0.5686158418860848
AuP3,Pmm2,-0.1130352964818676,-0.194843223467523
AuPa,Fm-3m,-0.2679863597548851,-0.773645966660873
AuPa,P-6m2,-0.3452524853627182,-1.09210267442419
AuPb3,Pmm2,-0.0874963416935934,-0.1422130999974427
AuPt,F-43m,0.367913505214392,1.847251300701578
AuRh,Pm-3m,-0.0192951359580094,0.2513489810857285
AuRh3,Pmmm,-0.017021308939661,0.0030203171939454
AuSb,F-43m,-0.1513566041380482,-0.2929498309507536
AuSb,Fm-3m,-0.2304738486423554,-0.3457690475327203
AuSb2,I4/mmm,-0.0315166285705447,0.0490915874662545
AuSb3,Fm-3m,0.0595104145673255,0.1607352311731227
AuSb3,P4/mmm,0.059394509127575795,0.16049637575967857
AuSb3,Pm-3m,0.5379183258701786,1.1466278665480372
AuSr,F-43m,-0.285132056356184,-0.8443129251631226
AuSr,Pm-3m,-0.6321068922541984,-1.6002816597294864
AuTa3,Pm-3m,-0.1211580680472752,-0.2115824547301485
AuU,Fm-3m,-0.0961581775958408,-0.0654463932921094
AuU,Pm-3m,-0.1713095083591044,-0.3751868544661422
AuV,F-43m,0.3193075234849105,1.6469189972839295
AuV,Fm-3m,0.1424341152128982,0.917925239073905
AuV,P4/mmm,-0.0634590717975214,0.0693248210973632
AuV3,Fm-3m,-0.0245449522993875,-0.0124842436719934
AuV5,F-43m,-0.0045072422710259,-0.065687328428082
AuW2,I4/mmm,0.1384388713250127,0.5160790591189984
AuW4,I4/m,0.3214494849757139,0.5094908530641749
AuW8,I4/mmm,0.6515721004300336,0.4722191246785764
AuYb,Fm-3m,-0.5380239116675694,-1.8866210133333456
AuYb,Pm-3m,-0.5951414145010072,-2.122034032491569
Ba12Ir17,I-43m,4.365954441194811,1.0267049981583942
Ba16Ir4,I-43m,0.7453841055960511,0.11108972538090045
Ba16Ir8,Fd-3m,0.2793957899387316,-0.1099216714722593
Ba2As4,Cmcm,-1.0345837540069445,-1.4808602005035456
Ba2As4,I4_1/amd,-1.1509670243026724,-1.6407536113419103
Ba2Bi3,Immm,-1.0340875959761555,-1.7252782525696968
Ba2Br,I4/mmm,-0.7756788923593183,-1.9956463249852938
Ba2Br2,P4/nmm,-1.5927002938338246,-3.244104720290593
Ba2Br4,I4/mcm,-3.033826734122373,-4.227524548163192
Ba2Br6,Pm-3n,-3.08542191432151,-3.2874765379729496
Ba2Ca2,Pmmn,-0.1062337536885658,-0.1808267517690468
Ba2Ca2,R-3m,0.0146013109244882,-0.1470575270751871
Ba2Ca3,P-3m1,0.1869477379977864,0.2877482294031633
Ba2Cu,I4/mmm,-0.12022692626047822,-0.20753045341871595
Ba2Cu2,Cmcm,-0.1570350735438868,-0.2855170086176224
Ba2Cu4,Cmcm,0.0801002239410467,0.0505508243636815
Ba2Cu4,I4/mcm,0.1158334971698817,0.0996430600643944
Ba2Cu6,Pmmn,-0.2018946249771152,-0.316321325755335
Ba2Fe,I4/mmm,0.3941522576662093,1.2187038510711308
Ba2Ga2,Cmcm,-0.4514748022988787,-0.8922920081170984
Ba2Ga2,Pmma,-0.3145535606771745,-0.6101276865162938
Ba2Ga2,Pmmn,-0.1965681316612128,-0.366985876357661
Ba2Ge2,Cmcm,-0.5095710725881863,-1.012015540416129
Ba2Ge2,P4/nmm,-0.2988942677984552,-0.5778573557806153
Ba2Ge2,Pmmn,-0.2450961590360342,-0.4669913814251171
Ba2Ge6,I4/mmm,-0.1805915723842204,-0.2943708916528313
Ba2In,I4/mmm,-0.3483264653926023,-0.8214081891409647
Ba2In2,C2/m,-0.4841604812779471,-0.9596499456142744
Ba2Ir,Fm-3m,-0.3778945289701987,-0.4166731617843865
Ba2Ir4,Fd-3m,-0.1504668664406282,-0.2662142778243485
Ba2Mn2,P4/nmm,0.5781497087550953,1.229535826805573
Ba2Mo4,C2/m,1.605558724418688,2.146305326827596
Ba2Na,P-3m1,-0.1002395939445018,-0.1397388055730129
Ba2Na2,P4/nmm,-0.1360383585300816,-0.242247434243732
Ba2Ni6,I4/mmm,0.9583170745101992,0.879148212870515
Ba2P,I4/mmm,-0.6343011728768096,-1.6071821457752082
Ba2P2,R-3m,-1.7059976617013712,-1.3289818608693738
Ba2Pb,Immm,-0.7605465292572132,-1.1043735589907553
Ba2Pd,Fmmm,-0.38191875987203927,-0.9137098838528563
Ba2Pd,P-3m1,-0.4320964250515621,-1.0515832742993152
Ba2Pd2,Cmcm,-0.6280943267683665,-1.2562656889947477
Ba2Pd2,R-3m,-0.16028931743168498,-0.29222328375834244
Ba2Pd3,P-3m1,-0.6079408196773438,-1.0227230340364555
Ba2Pd4,Cmcm,-0.5629409794287441,-0.8328927414954246
Ba2Pd4,Immm,-0.6075544178804587,-0.8941850116399758
Ba2Pt2,P6_3/mmc,-0.5265247240684108,-1.0469532572518463
Ba2Rh2,P4/nmm,-0.0271281433729737,-0.0178076277445503
Ba2Sb,Fmmm,-0.2288332186270021,-0.4930760714928925
Ba2Sb2,Cmcm,-0.877244081356382,-1.769708093165807
Ba2Sn2,Cmcm,-0.7803657378474296,-1.570063306496854
Ba2Sn2,Pmma,-0.6812350237795752,-1.365776883488508
Ba2Sn4,Cmcm,-0.7920818089433707,-1.1476983720669742
Ba2Sn4,Imma,-0.8818787801975783,-1.27106613772871
Ba2Sn6,Cmcm,-0.5717147323101565,-0.6973799491801431
Ba2Ta4,Cmcm,0.9000124303462252,1.176989005186524
Ba2V,I4/mmm,0.4434112422199498,0.9514855234506471
Ba2V2,I4_1/amd,1.1222963905633525,2.3509014929741845
Ba2V2,P4/nmm,0.4763657327516384,1.0197816192137583
Ba2V4,I4/mcm,1.5919991469065176,2.1276764715596603
Ba2W,Immm,0.723124397779967,2.122622041717055
Ba3Br,P4/mmm,-0.755165701546705,-1.518131618886577
Ba3Ca,R-3m,-0.1007466025425425,-0.1695189498363384
Ba3Cu,P4/mmm,-0.1033373278444385,-0.17485786028299644
Ba3Fe,P4/mmm,0.6628226011836448,1.404027884919457
Ba3Ga,Pmm2,-0.147213514245232,-0.2652769524821124
Ba3Ga5,Cmmm,-0.4425812436883244,-0.5643222045184536
Ba3Ge,P4/mmm,-0.3437568104393547,-0.6703091095014196
Ba3In,P4/mmm,-0.3272987795130326,-0.6363927567411873
Ba3In3,Cm,-0.5731280018869006,-0.8468882046146752
Ba3Ir,Fm-3m,0.1563013032757359,0.3601997928881281
Ba3Ir,Pm-3m,-0.020985471013034537,-0.005148941928313074
Ba3Na,R-3m,-0.0944405217786881,-0.156523515529593
Ba3Na2,P-3m1,-0.0027803389490979,-0.0250417715420619
Ba3P,Pm-3m,-0.3659348585064576,-0.7160131493798616
Ba3Pd,R-3m,-0.2164002727609393,-0.4078555220971919
Ba3Pt,Pm-3m,-0.1827432382167839,-0.3384958361436788
Ba3Rh,Pm-3m,0.0743835984520991,0.191385565563794
Ba3Sb,P4/mmm,-0.5747788355133864,-1.1463942823189377
Ba3Sn,Immm,-0.4261642819845395,-0.8401326374506345
Ba3Sr,Immm,-0.1397325595189258,-0.2498603634249775
Ba3Sr,Pmm2,-0.1297175950585676,-0.2292217421318649
Ba3V,P4/mmm,0.3151117860225971,0.6874729872926195
Ba3W,Pmm2,0.9417876014064654,1.978912899880956
Ba3W,Pmmm,0.8138361561670915,1.7152333398930375
Ba4As,I4/m,-0.6544343419966903,-1.0993733070178575
Ba4Br,I4/mmm,-0.3568273850129235,-0.6087317432902144
Ba4Br8,Pnma,-12.8175847703808,-4.608250529546351
Ba4Ca2,Cmcm,-0.0996896062991786,-0.1964538277492375
Ba4Ca2,I4_1/amd,-0.0066217571720631,-0.0685923593568082
Ba4Cu,Im-3m,0.0522326894777317,0.0656539519930746
Ba4Cu2,Cmc2_1,-0.0903477715744336,-0.1836195276489542
Ba4Cu2,Pnnm,-0.1010904327165264,-0.19837835619128158
Ba4Cu8,Pnma,0.6400613139106349,0.2825872705246419
Ba4Fe2,C2/m,1.1381106939073782,1.50410082614454
Ba4In,Im-3m,0.017917279544717,0.0090807906660434
Ba4In2,C2/m,-0.46896882084529684,-0.703788885575485
Ba4In2,I4/mcm,-0.49917635590829945,-0.7452895737927009
Ba4In5,I4/mmm,-0.6409260492580384,-0.711581818136062
Ba4Ir12,Pnma,0.34672793632557164,-0.0028533242115338
Ba4Ir2,Fd-3m,1.4612067674645084,1.9479870745569023
Ba4Na3,P6/mmm,-0.131010076715834,-0.2416544573182962
Ba4Nb2,Cmcm,1.0831132982327956,1.4285425336228448
Ba4Ni2,Cmcm,0.0202926709585218,-0.0316159133123871
Ba4Ni6,R-3c,0.9269430081326668,0.6265205617273881
Ba4P,Im-3m,-0.5305293829863361,-0.895100787791213
Ba4P2,I4_1/amd,-1.1146669657144006,-1.5908826963335672
Ba4Pd2,Cmcm,-0.5536483971315558,-0.8201261069506297
Ba4Rh2,Cmcm,-0.1853896524432134,-0.3141930238738709
Ba4Sb2,I4/mcm,-1.1567808607344985,-1.6487409632592342
Ba4Ta2,Cmcm,1.0494677094114342,1.3823184677185023
Ba4Ta2,Pnnm,1.502791051201634,2.0051177338613213
Ba4V2,C2/m,0.7379334349186649,0.9543164222773328
Ba4W2,Pnnm,1.7944011515050171,2.405746908947639
Ba4W4,Pnma,1.7761839671739663,1.7218693794146576
Ba5Br,Cm,-0.7511923505656615,-1.0915223001046348
Ba5Ca,P4/mmm,-0.1091658822524004,-0.209472830225763
Ba5Fe,Cm,0.5155649537973933,0.6488149973811154
Ba5Ir24,I-43m,3.2357680676969074,0.7054548550648477
Ba5P,F-43m,0.3850578924734976,0.4695175852999287
Ba5P,P4/mmm,0.1794545021266484,0.1870489170888064
Ba5Pb,Cmmm,-0.3526199725827191,-0.5439427655227672
Ba5Pd,Amm2,-0.1970964567469315,-0.3302764426107941
Ba5Rh,Cmmm,-0.0116989012563434,-0.0755676048787
Ba5Sn,Cmmm,-0.3847752434316701,-0.5881193548161077
Ba5Sn3,Cmmm,-0.9943376874262442,-1.1328460536751932
Ba5V,Cm,0.5990107182719514,0.7634571436960367
Ba5V,P4/mmm,0.563486730387474,0.7146524351241182
Ba5W,Amm2,0.9803430206591728,1.2873513626555928
Ba6As2,I4/mmm,-0.7557998155300912,-0.8870592203011657
Ba6Ga2,Cmcm,-0.2773686567904674,-0.3940889487072594
Ba6Ga2,Pmmn,-0.3176070679074692,-0.4355501706500618
Ba6Ir2,Pm-3n,0.541746791745116,0.4499187162515153
Ba6Pd7,R-3m,-1.1970846640156572,-0.9236488433709285
Ba6Sn2,Cmcm,-0.3845050747774617,-0.5044811506110454
Ba7P,Fm-3m,-0.0603830351745964,-0.170509320027257
Ba7P6,R-3m,-1.083519684458454,-0.8516389221707803
Ba7Pd6,R-3m,0.2991009083136045,0.02506092247690965
Ba8Bi6,I-43d,-3.081382150594771,-1.9853280281886012
Ba8Cu4,Pa-3,-0.0023221595568959,-0.1586827005714084
Ba8Cu4,Pnma,0.0134682097172056,-0.1478358838630534
Ba8P,I4/mmm,-0.4033031810652946,-0.4939426861428934
BaAs,Fm-3m,-0.5793274924973845,-2.056856058334302
BaAs,P4/mmm,-0.868943200126712,-1.7526018173745757
BaAs8,I4/mmm,0.0741842720438188,-0.0566112305356686
BaBr,F-43m,-0.8031255218016252,-2.979252296730932
BaBr2,I4/mmm,-1.5469474183399605,-4.114864232816315
BaBr3,P4/mmm,-1.4480814933814945,-2.9460774365978537
BaCa2,P-3m1,-0.11140880857455684,-0.1704285055453088
BaCa3,I4/mmm,-0.111767662017427,-0.1922309098888535
BaCa3,R-3m,-0.1104286943037367,-0.1894715942990733
BaCa4,I4/m,-0.1132252045536889,-0.2071236761961987
BaCa5,P4/mmm,-0.1144053649301393,-0.2166711049798876
BaCu,Immm,-0.0377495911695913,-0.0396960767277349
BaCu,Pm-3m,-0.1083774510497003,-0.1158088200964021
BaCu3,I4/mmm,0.2168353471989537,0.4849470361576524
BaCu3,Pmmm,0.0741984543799671,0.1910040246801972
BaCu5,Amm2,0.0709907687999862,0.0380357794634806
BaCu5,Cmmm,0.192584531085697,0.20508763613609066
BaFe2,I4/mmm,0.3892861094474001,1.205333114291293
BaFe3,P4mm,0.636356666839882,1.3494874621100317
BaFe4,I4/m,0.5946454727961727,0.9598879406418674
BaGe,Fm-3m,-0.2225385231627418,-0.5863301370881802
BaGe2,I4/mmm,-0.3361749366205,-0.7880193802969621
BaGe8,I4/mmm,0.0070322770353929,-0.1181158408301155
BaIn,Pm-3m,-0.48934941982017466,-0.9703431974885242
BaIn2,Fm-3m,-0.0867942940114578,-0.1027950960419677
BaIn3,C2/m,-0.2745315800774583,-0.5276512579410988
BaIn3,P4/mmm,-0.4042936251422645,-0.795062062733568
BaIr,F-43m,0.353627739850001,1.788371710583215
BaIr,P4/mmm,0.057477711510575,0.5677726150925839
BaIr2,Fm-3m,1.0192532727484185,2.9362966488340416
BaIr2,Fmmm,1.6987071542998302,4.8032350559189805
BaIr5,F-43m,0.7154205809990271,0.92338708860446
BaNb3,Immm,0.7486837779758155,1.5809687336472649
BaNi3,P4mm,0.2002029187992207,0.4506712888711138
BaP,Fm-3m,-0.4289660169286563,-1.4371327305840973
BaP2,P-3m1,-0.604283110540371,-1.5247013843816526
BaP3,Pm-3m,1.377803545038766,2.8774450887874345
BaPa,Fm-3m,0.4931604110225686,2.3634635084115327
BaPb3,P4/mmm,-0.282222841280733,-0.5435012420193369
BaPb3,Pmmm,-0.3708094513211297,-0.7260586044045263
BaPd,Cmmm,-0.3529431776781178,-1.1238002978771056
BaPd3,Immm,-0.29165750043158,-0.562943982731466
BaPd3,R-3m,-0.5055544673922667,-1.0037382076456869
BaPd5,Amm2,-0.2402225364718473,-0.3895253017104093
BaPd5,P6/mmm,-0.5877744050586488,-0.8670101976957602
BaRh2,I4/mmm,-0.0503306635351863,-0.002603818832003
BaRh3,P4/mmm,0.1467478202187025,0.3405121824502942
BaRh3,Pmmm,0.1174233251489892,0.2800808997681472
BaSn5,Cmmm,-0.48482407640134073,-0.7255716631527778
BaSr7,Fm-3m,-0.1358764982653373,-0.2482969647564355
BaTa2,P4/mmm,1.626253842157086,4.604154772720147
BaTa3,P4/mmm,0.7467311189309642,1.576944736288035
BaTh,Fm-3m,0.4189675435429891,2.057673407883033
BaU,Fm-3m,0.6011261551130082,2.8084504304783557
BaV2,I4/mmm,0.4199809237022118,1.289673389895871
BaV3,P4/mmm,0.4392698068228043,0.943335140567424
BaV5,P4/mmm,0.4298540824353264,0.5310609290069752
BaW3,Imm2,1.15517809504172,2.4186633955637817
BaW3,Immm,1.1410380568183125,2.389523911832393
BaW3,Pmm2,0.8624097757628819,1.815332800419469
BaW5,Amm2,1.0479888338553962,1.380286711296299
Bi16I4,C2/m,-0.7616256895338325,-0.5100328870818627
BiBr,P-6m2,-0.2841041643209848,-0.8400764099905219
BiGe,P4/mmm,-0.024384343157919153,0.2303735257065561
BiI,P4/mmm,-0.0340892534289714,0.1903741890018257
BiP,P-6m2,-0.0454772747899229,0.1434378147237389
Ca10Ge6,I4/mcm,-2.163358780060084,-1.2960363743714427
Ca12Mo4,Pnma,2.1146015806352034,0.9079455803528412
Ca16W4,I-43m,4.632184128982519,1.7130563432807286
Ca17Nb12,I-43m,3.1928506564853825,0.6932557834637315
Ca18Mo6,Pmmn,3.444019972948821,0.9770097950463194
Ca2As2,R-3m,-0.4711366098823596,-0.9328106342450038
Ca2As6,P-1,-1.8240003976200792,-1.9877215025340336
Ca2Br2,Fd-3m,-0.7523608084207241,-1.5123513560385249
Ca2Cu2,Cmcm,-0.2770836808867908,-0.5329105718721818
Ca2Cu2,P4/nmm,-0.1347805700323795,-0.2396554110195199
Ca2Cu4,Pnnm,0.099947023501356,0.0778173934148837
Ca2Cu6,Pm-3n,0.0557448654503408,-0.0508523920346943
Ca2Fe,P-3m1,0.3238895257113834,1.0256426346517598
Ca2Fe2,R-3m,0.0435460967581286,0.12783631168408371
Ca2Ga,I4/mmm,-0.2947036492248763,-0.6740685422307158
Ca2Ga2,Cmcm,-0.5536598303634295,-1.1028726950878962
Ca2Ge2,P-3m1,-0.4587408744633782,-0.907265771856862
Ca2Ge2,R-3m,-0.41311800188064024,-0.8132471467018616
Ca2In2,P4/nmm,-0.3960710211942438,-0.7781170990646323
Ca2K6,Pm-3n,0.152144232187302,0.0484764688342174
Ca2Mo2,Imma,0.2952970653460251,0.6466392411828554
Ca2Nb,Fm-3m,0.6335223421701878,1.8764220809637224
Ca2Nb2,Cmcm,0.1858847306834448,0.4211646777099118
Ca2Nb2,P2_1/m,0.3196212288691874,0.6967659491919955
Ca2Nb6,Cmcm,0.7598431824586787,0.6746428693500565
Ca2P,I4/mmm,-0.624841069724384,-1.5811885788977595
Ca2P2,Cmcm,-0.862311482212095,-1.738935317098484
Ca2Pb2,R-3m,-0.73352158294668,-0.6609626653453888
Ca2Pb6,Cmcm,0.0513174769188139,-0.0554143251090123
Ca2Pd,I4/mmm,-0.8016465779129142,-1.1608389508678212
Ca2Rh,I4/mmm,-0.3575629024793421,-0.8467871877898279
Ca2Rh,P4/mmm,-0.3140657370282578,-0.7272698357150458
Ca2Rh4,I4/mcm,0.05221349240507,0.0122385771558905
Ca2Rh4,I4_1/amd,-0.3092865123785603,-0.4844089962974679
Ca2Sb,I4/mmm,-0.9463761897144054,-1.3596760450777632
Ca2Sb2,Pmma,-0.8564985925184375,-1.7269562402399583
Ca2Sb4,Cmcm,-0.7355853288756663,-1.07008055916798
Ca2Sn,I4/mmm,-0.4420531362752345,-1.0789413733498117
Ca2Sr,I4/mmm,-0.1324254888525309,-0.2281761300209892
Ca2Sr,P-3m1,-0.105910553369107,-0.1553209256289636
Ca2Ta2,I4_1/amd,0.6002156404253872,1.2750088196479827
Ca2V,P6/mmm,0.8067479462364484,1.0488573893924278
Ca2W2,P-3m1,0.5206775493134855,1.11109844858942
Ca2W2,P4/nmm,0.2891860699561417,0.6340458345786691
Ca3As,P4mm,-0.5123049956200112,-1.017649549635202
Ca3Fe,R-3m,0.3559944177458076,0.7717230270147735
Ca3Ga,P4/mmm,-0.1820451455636562,-0.33705722196262666
Ca3Ga8,Immm,-1.2066926522989787,-1.0524795083222254
Ca3Ir,Fm-3m,-0.1833556488613899,-0.3397578787020848
Ca3Mn,Fm-3m,0.1788683103449748,0.4067053910322438
Ca3Mo,Cmmm,0.5651237145240595,1.2026921407431062
Ca3Mo,Imm2,0.4853413021427299,1.0382782777177433
Ca3Nb,Pm-3m,0.4132658939309123,0.8897468415335945
Ca3Ni,Fm-3m,0.05821666214276135,0.1580690942693606
Ca3P2,R-3m,-1.2349993222792788,-2.0565058709145254
Ca3P5,Cmmm,-0.9181037891208804,-1.0542954725398408
Ca3Pb,Immm,-0.3824763427307476,-0.7501014808844259
Ca3Pb,Pmm2,-0.3942807834033415,-0.7744278158986959
Ca3Rh,P4/mmm,-0.3353788742011776,-0.6530440404218438
Ca3V,P4/mmm,0.4010324298748552,0.8645363844465768
Ca3W,Fm-3m,0.6370447305710497,1.3509054089064785
Ca3W,P4/mmm,0.506011739662493,1.080875466516762
Ca4Cr2,I4_1/amd,0.5972849038642384,0.7610861297915292
Ca4Ge,Im-3m,-0.272204383036913,-0.4692203473281167
Ca4In,I4/m,-0.2307661030778869,-0.4009042612952573
Ca4Mn4,P2_13,0.9796587705600642,0.9011384647715248
Ca4Mo2,Cmcm,0.4306899673732741,0.5322093113600168
Ca4Nb,Im-3m,0.6776491843894463,1.0967297378366268
Ca4P2,Pnnm,-1.3263392574221848,-1.8816891379736007
Ca4P6,Fdd2,-1.7652053684340798,-1.5926478049206978
Ca4Sb2,Imma,-0.880873324424189,-1.269684790111945
Ca4Sn2,C2/m,-0.73362868449296,-1.0673924189966848
Ca4Ta2,I4/mcm,0.5653455179733264,0.717206134520696
Ca4W2,Fd-3m,2.1908894887549724,2.950463279603312
Ca4W4,P2_13,2.877510706166396,2.856664494066047
Ca5Cu3,P4/mmm,-0.2418557553311779,-0.3574968406104677
Ca5Ga3,Cmmm,-0.3586549363009873,-0.4778454485822337
Ca5Ge,F-43m,0.2211518736828846,0.2443349423412341
Ca5Ge24,I-43m,-0.4099981138667091,-0.3308369769522696
Ca5P3,Cmmm,-1.815727552073946,-1.9791972523023484
Ca5Sb4,I4/mmm,-1.2163577248159394,-1.2386205301181632
Ca5Sn7,I4mm,-1.123191652981522,-0.9286372049986288
Ca6Cr2,I4/mmm,1.3975197448791976,1.3316978759546605
Ca6Nb2,Pm-3n,1.010714403145147,0.9331378514133152
Ca6P2,Pmmn,-1.2062514844360293,-1.3511997293463545
Ca6Ta2,I4/mmm,1.149631818498975,1.0762768479546547
Ca7As6,R-3m,-1.524417132975769,-1.1312056569940463
Ca7Ge,Fm-3m,-0.1673691471804192,-0.2807466482799297
Ca8Br16,Fd-3m,-10.138489808069483,-3.688080408885204
Ca8In4,Pnma,-1.250770317036193,-1.0162743185376697
CaAs3,Immm,-0.4508556112896482,-0.8910159927305042
CaAs3,R-3m,-0.2801760407526065,-0.5392832399355798
CaBi,P-6m2,-0.4286094730199322,-1.4356632146940211
CaBr,F-43m,-0.685666653345413,-2.495138925549062
CaBr3,Immm,-1.3394627677748334,-2.722238325434774
CaBr3,Pm-3m,-1.1308356169534124,-2.292304023190588
CaCr,Fm-3m,0.3482281294714295,1.7661169109431747
CaCr3,Cmmm,0.5061826264529633,1.0812276263038954
CaCr3,Imm2,0.7848189244739777,1.655435258905413
CaCr3,Pmm2,0.550198888772439,1.1719353839145976
CaCs,R-3m,-0.0312268892182492,0.2021715850249253
CaCu,F-43m,0.0941544826165509,0.7189380020705707
CaCu,P4/mmm,0.0515889339745578,0.5435016853401479
CaFe,Cmmm,0.1519584290355135,0.9571802372997672
CaGa4,C2/m,-0.5925481586859153,-0.9973463448108204
CaGe,R-3m,-0.2988532241088248,-0.9008654942844506
CaGe3,Fm-3m,-0.2837535143970843,-0.546655619940194
CaI3,Pm-3m,-0.8363226058147687,-1.6853780049461504
CaIr3,Pm-3m,-0.1151508325155158,-0.1992028741885239
CaK,Fm-3m,0.0774102884145075,0.6499258584204977
CaMn3,Fm-3m,0.4692538921055724,1.0051256924381708
CaMo2,P-3m1,0.3124520579462537,0.9942158543649792
CaMo3,Pmmm,0.5341827792053735,1.138929733095559
CaNa3,Imm2,-0.0848367304440801,-0.1367322308857368
CaNb3,Fm-3m,0.4305855043498998,0.9254387186038152
CaNb3,Pm-3m,0.519550507671337,1.1087758656460711
CaNb4,Im-3m,2.141881833243484,3.5106968163481738
CaNi5,P6/mmm,-0.3019270724329907,-0.4742982136070762
CaNp,Fm-3m,0.5258270070004525,2.4981007317369466
CaP,Fm-3m,-0.4703119480349443,-1.6075423246453606
CaP,Immm,-0.8604246209188784,-1.735046914317079
CaPb3,R-3m,-0.310350024472975,-0.6014651303830432
CaPb5,Amm2,-0.2869841870170799,-0.4537688977453916
CaRh2,I4/mmm,-0.1894580938499796,-0.3848848686372462
CaRh4,I4/m,-0.1556919882355546,-0.2771353767401837
CaSb,P-6m2,-0.5518513102759757,-1.9436114189363631
CaSb,P4/mmm,-0.6783270860842611,-1.7284677450238397
CaSb3,Cmmm,-0.3820392627046641,-0.7492007558575096
CaSn,Pm-3m,-0.675281976057815,-1.3535089720090854
CaTa,Fm-3m,0.7770507515403835,3.533533606994877
CaTa,Pm-3m,0.4335873675090693,2.1179298394264983
CaU,Pm-3m,0.3070751610176771,1.596502623370549
CaV,P-6m2,0.3310093979168844,1.6951489347494146
CaW,Pm-3m,0.6136897183331872,2.860231867031567
CaW2,I4/mmm,0.49581927887872324,0.9126762813585125
CaW3,Fm-3m,0.6319329462299196,1.3403711547345096
CaW3,P4/mmm,0.6022302033616308,1.2791603872024009
CaW3,Pm-3m,0.9136437384290772,1.9209146381782087