formula,space_group,formation_energy_value,formation_energy_value_per_atom
AuIn8,I4/mmm,-0.18422711923387425,-0.020469679914874916
AuIr,F-43m,3.6440029963050193,1.8220014981525097
AuIr3,Immm,1.515410315137153,0.37885257878428824
AuK,Fm-3m,-0.5613691009818353,-0.2806845504909177
AuK3,Imm2,-0.5321657141717715,-0.13304142854294287
AuK3,R-3m,-0.5344969275188021,-0.13362423187970052
AuMn,P-6m2,0.38783888511507314,0.19391944255753657
AuMo,F-43m,4.403076176466875,2.2015380882334377
AuNb3,Imm2,0.16024318292710404,0.04006079573177601
AuNb3,Immm,-0.06288424576774787,-0.015721061441936968
AuNb3,Pmm2,0.398194192478158,0.0995485481195395
AuNi,F-43m,1.9282751164404583,0.9641375582202292
AuNi,Fm-3m,0.9230440362658188,0.4615220181329094
AuNi,P-6m2,0.3576878817071787,0.17884394085358934
AuNi2,Immm,0.3407921928822599,0.11359739762741998
AuNi3,Imm2,0.6443672986868947,0.16109182467172367
AuNi3,Pmmm,0.39423668622521646,0.09855917155630411
AuNi5,Amm2,0.7462877046001033,0.12438128410001721
AuNp,F-43m,3.5752088907341495,1.7876044453670747
AuP,F-43m,0.432753835551118,0.216376917775559
AuP,Immm,0.7929503895622538,0.19823759739056346
AuP2,I4/mmm,-0.20135116101847217,-0.06711705367282406
AuP2,P-3m1,0.7195858495323932,0.2398619498441311
AuP3,Cmmm,2.094561147130026,0.5236402867825065
AuP3,Imm2,1.8125588680013873,0.45313971700034683
AuP3,Pmm2,0.13173608337916676,0.03293402084479169
AuPa,Fm-3m,-0.5712747225466561,-0.28563736127332806
AuPa,P-6m2,-0.9218300532875681,-0.46091502664378403
AuPb3,Pmm2,0.24760596390120782,0.061901490975301954
AuPt,F-43m,2.313794067026599,1.1568970335132995
AuRh,Pm-3m,0.5570338800220966,0.2785169400110483
AuRh3,Pmmm,0.5673502013879492,0.1418375503469873
AuSb,F-43m,-0.042127153248227245,-0.021063576624113622
AuSb,Fm-3m,-0.40108098452076746,-0.05013512306509593
AuSb2,I4/mmm,0.5015851390475579,0.16719504634918594
AuSb3,Fm-3m,0.9145735600734,0.22864339001835
AuSb3,P4/mmm,0.9140476987150556,0.2285119246787639
AuSb3,Pm-3m,3.08510355955921,0.7712758898898024
AuSr,F-43m,-0.6490645081165738,-0.3245322540582869
AuSr,Pm-3m,-2.2232844835603927,-0.7406152934720147
AuTa3,Pm-3m,0.09488318244432747,0.02372079561108187
AuU,Fm-3m,0.208307335612953,0.1041536678064765
AuU,Pm-3m,-0.1326532005092922,-0.0663266002546461
AuV,F-43m,2.0932694080363508,1.0466347040181754
AuV,Fm-3m,1.290797229597242,0.645398614798621
AuV,P4/mmm,0.35666272107956765,0.17833136053978382
AuV3,Fm-3m,0.5332155367390179,0.13330388418475447
AuV5,F-43m,0.6241263467611873,0.10402105779353121
AuW2,I4/mmm,1.2726708639811264,0.4242236213270421
AuW4,I4/m,2.1029874573488527,0.42059749146977055
AuW8,I4/mmm,3.6007491444433555,0.40008323827148395
AuYb,Fm-3m,-1.7964313170895618,-0.8982156585447809
AuYb,Pm-3m,-2.0555726282314897,-1.0277863141157448
Ba12Ir17,I-43m,20.452849851211482,0.7052706845245339
Ba16Ir4,I-43m,4.02637289922248,0.201318644961124
Ba16Ir8,Fd-3m,1.9121904313999778,0.07967460130833241
Ba2As4,Cmcm,-4.049316373698218,-0.6748860622830364
Ba2As4,I4_1/amd,-4.577345642543708,-0.7628909404239513
Ba2Bi3,Immm,-4.0470653116549915,-0.8094130623309983
Ba2Br,I4/mmm,-2.8746686391143523,-0.958222879704784
Ba2Br2,P4/nmm,-6.58148330547913,-1.6453708263697826
Ba2Br4,I4/mcm,-13.119853800189292,-2.1866423000315485
Ba2Br6,Pm-3n,-13.353940410810177,-1.669242551351272
Ba2Ca2,Pmmn,0.16259458786217973,0.04064864696554493
Ba2Ca2,R-3m,0.7108215852339015,0.059235132102825126
Ba2Ca3,P-3m1,1.4927549133179685,0.2985509826635937
Ba2Cu,I4/mmm,0.09910775970207708,0.025951005597658023
Ba2Cu2,Cmcm,-0.0678902894868596,-0.0169725723717149
Ba2Cu4,Cmcm,1.0079892371002472,0.16799820618337455
Ba2Cu4,I4/mcm,1.1701105977436974,0.1950184329572829
Ba2Cu6,Pmmn,-0.271417446644719,-0.033927180830589876
Ba2Fe,I4/mmm,2.432838919756257,0.8109463065854191
Ba2Ga2,Cmcm,-1.4037592189172567,-0.3509398047293142
Ba2Ga2,Pmma,-0.7825494615421977,-0.19563736538554943
Ba2Ga2,Pmmn,-0.24725122100112173,-0.061812805250280434
Ba2Ge2,Cmcm,-1.6673411843111188,-0.4168352960777797
Ba2Ge2,P4/nmm,-0.7115034688632047,-0.17787586721580118
Ba2Ge2,Pmmn,-0.46742220217504915,-0.11685555054376229
Ba2Ge6,I4/mmm,-0.17476579511249568,-0.02184572438906196
Ba2In,I4/mmm,-0.9357766576706634,-0.3119255525568878
Ba2In2,C2/m,-1.552053687092803,-0.38801342177320075
Ba2Ir,Fm-3m,-1.069926548392786,-0.08916054569939884
Ba2Ir4,Fd-3m,-0.03809042576463639,-0.006348404294106065
Ba2Mn2,P4/nmm,3.267632780772761,0.8169081951931902
Ba2Mo4,C2/m,7.928973108876811,1.3214955181461352
Ba2Na,P-3m1,0.189790006748062,0.06326333558268733
Ba2Na2,P4/nmm,0.027371512735444803,0.006842878183861201
Ba2Ni6,I4/mmm,4.992446799733628,0.6240558499667035
Ba2P,I4/mmm,-2.2332399040418345,-0.7444133013472781
Ba2P2,R-3m,-7.095511878187274,-0.5912926565156061
Ba2Pb,Immm,-2.806013319458824,-0.46766888657647065
Ba2Pd,Fmmm,-1.0881844276856167,-0.36272814256187225
Ba2Pd,P-3m1,-1.3158397924970124,-0.4386132641656708
Ba2Pd2,Cmcm,-2.205079530096766,-0.5512698825241915
Ba2Pd2,R-3m,-0.0826547484709792,-0.0206636871177448
Ba2Pd3,P-3m1,-2.1136433504215866,-0.4227286700843173
Ba2Pd4,Cmcm,-1.9094797048713712,-0.31824661747856187
Ba2Pd4,Immm,-2.111890250875824,-0.351981708479304
Ba2Pt2,P6_3/mmc,-1.7442596638539012,-0.4360649159634753
Ba2Rh2,P4/nmm,0.5214956349833102,0.13037390874582755
Ba2Sb,Fmmm,-0.3936374690975306,-0.13121248969917687
Ba2Sb2,Cmcm,-3.335468480448954,-0.8338671201122385
Ba2Sn2,Cmcm,-2.8959327915134967,-0.7239831978783742
Ba2Sn2,Pmma,-2.4461781288684676,-0.6115445322171169
Ba2Sn4,Cmcm,-2.9490884421393293,-0.49151474035655485
Ba2Sn4,Imma,-3.3564960442407035,-0.5594160073734505
Ba2Sn6,Cmcm,-1.9492860989281056,-0.2436607623660132
Ba2Ta4,Cmcm,4.727919444986064,0.787986574164344
Ba2V,I4/mmm,2.6563262434230643,0.663870099780171
Ba2V2,I4_1/amd,5.736418662195618,1.4341046655489045
Ba2V2,P4/nmm,2.8058403058515182,0.7014600764628796
Ba2V4,I4/mcm,7.867453495435704,1.3112422492392841
Ba2W,Immm,3.9253809163285904,1.3084603054428634
Ba3Br,P4/mmm,-2.7816005794271703,-0.6954001448567926
Ba3Ca,R-3m,0.1874897158330402,0.04687242895826005
Ba3Cu,P4/mmm,0.17573563138891313,0.04393390784722828
Ba3Fe,P4/mmm,3.6517925089405043,0.9129481272351261
Ba3Ga,Pmm2,-0.02333001237646748,-0.00583250309411687
Ba3Ga5,Cmmm,-1.36340926794378,-0.1704261584929725
Ba3Ge,P4/mmm,-0.9150441970884131,-0.22876104927210328
Ba3In,P4/mmm,-0.8403743410637426,-0.21009358526593566
Ba3In3,Cm,-1.9556980832226998,-0.32594968053711665
Ba3Ir,Fm-3m,1.353712467802504,0.338428116950626
Ba3Ir,Pm-3m,0.5493648535293639,0.13734121338234098
Ba3Na,R-3m,0.21610031602117452,0.05402507900529363
Ba3Na2,P-3m1,0.6319612829691792,0.12639225659383585
Ba3P,Pm-3m,-1.0156656908437949,-0.2539164227109487
Ba3Pd,R-3m,-0.33722936767048495,-0.08430734191762124
Ba3Pt,Pm-3m,-0.1845278728877755,-0.046131968221943875
Ba3Rh,Pm-3m,0.9820529872464459,0.24551324681161146
Ba3Sb,P4/mmm,-1.9631878922868715,-0.4907969730717179
Ba3Sn,Immm,-1.288925742407102,-0.3222314356017755
Ba3Sr,Immm,0.010610974539954299,0.0026527436349885747
Ba3Sr,Pmm2,0.056048728162783945,0.014012182040695986
Ba3V,P4/mmm,2.0742334058784504,0.5185583514696126
Ba3W,Pmm2,4.9174528115496905,1.2293632028874226
Ba3W,Pmmm,4.336938894851903,1.0842347237129757
Ba4As,I4/m,-2.3245838106265193,-0.46491676212530386
Ba4Br,I4/mmm,-0.9743452110394308,-0.19486904220788617
Ba4Br8,Pnma,-57.50862711202112,-2.3961927963342133
Ba4Ca2,Cmcm,0.19228529299922315,0.032047548833203855
Ba4Ca2,I4_1/amd,0.6145328222424098,0.10242213704040164
Ba4Cu,Im-3m,0.8815546231750631,0.1763109246350126
Ba4Cu2,Cmc2_1,0.23466906643030505,0.03911151107171751
Ba4Cu2,Pnnm,0.18592976314469922,0.03098829385744987
Ba4Cu8,Pnma,3.5485248670688634,0.29571040558907197
Ba4Fe2,C2/m,5.808167935186731,0.9680279891977884
Ba4In,Im-3m,0.7258660884653789,0.14517321769307578
Ba4In2,C2/m,-1.4831293362783056,-0.24718822271305094
Ba4In2,I4/mcm,-1.6201805001819478,-0.27003008336365797
Ba4In5,I4/mmm,-2.263296875485267,-0.2514774306094741
Ba4Ir12,Pnma,2.2176754374158776,0.13860471483849235
Ba4Ir2,Fd-3m,7.274050300012169,1.212341716668695
Ba4Na3,P6/mmm,0.050184756968741695,0.0071692509955345275
Ba4Nb2,Cmcm,5.55864552055905,0.926440920093175
Ba4Ni2,Cmcm,0.7366432060722836,0.12277386767871394
Ba4Ni6,R-3c,4.850103099578586,0.48501030995785865
Ba4P,Im-3m,-1.7624287453295686,-0.35248574906591373
Ba4P2,I4_1/amd,-4.412652784655204,-0.7354421307758674
Ba4Pd2,Cmcm,-1.867319389014952,-0.3112198981691587
Ba4Rh2,Cmcm,-0.19653461720328735,-0.03275576953388123
Ba4Sb2,I4/mcm,-4.603722937085131,-0.7672871561808551
Ba4Ta2,Cmcm,5.405995954860504,0.900999325810084
Ba4Ta2,Pnnm,7.462717613461805,1.243786268910301
Ba4V2,C2/m,3.992569310612261,0.6654282184353768
Ba4W2,Pnnm,8.785748558200666,1.4642914263667777
Ba4W4,Pnma,8.703097447793596,1.0878871809741995
Ba5Br,Cm,-2.763573541623062,-0.46059559027051034
Ba5Ca,P4/mmm,0.14929156159570312,0.024881926932617187
Ba5Fe,Cm,2.9836866232432584,0.4972811038738764
Ba5Ir24,I-43m,15.325210088719444,0.5284555203006704
Ba5P,F-43m,2.391577912129307,0.3985963186882178
Ba5P,P4/mmm,1.4587582070192884,0.24312636783654806
Ba5Pb,Cmmm,-0.9552562397155704,-0.1592093732859284
Ba5Pd,Amm2,-0.2496482245224687,-0.04160803742041145
Ba5Rh,Cmmm,0.5914978905736774,0.09858298176227957
Ba5Sn,Cmmm,-1.1011442536264795,-0.1835240422710799
Ba5Sn3,Cmmm,-3.8667205327623577,-0.4833400665952947
Ba5V,Cm,3.3622788890542594,0.5603798148423765
Ba5V,P4/mmm,3.2011070530897463,0.5335178421816245
Ba5W,Amm2,5.092378209214733,0.8487297015357887
Ba6As2,I4/mmm,-2.7844775456969906,-0.3480596932121238
Ba6Ga2,Cmcm,-0.6138420729158405,-0.07673025911448006
Ba6Ga2,Pmmn,-0.7964031811200201,-0.09955039764000251
Ba6Ir2,Pm-3n,3.1024732556642114,0.3878091569580264
Ba6Pd7,R-3m,-4.786580728623093,-0.36819851758639177
Ba6Sn2,Cmcm,-1.0999185022226552,-0.1374898127778319
Ba7P,Fm-3m,0.3706186561965126,0.04632733202456407
Ba7P6,R-3m,-4.2713380054235195,-0.32856446195565536
Ba7Pd6,R-3m,2.001592277744038,0.1539686367495414
Ba8Bi6,I-43d,-13.335612059308126,-0.952543718522009
Ba8Cu4,Pa-3,0.6340400364605507,0.05283666970504589
Ba8Cu4,Pnma,0.7056807209113138,0.058806726742609484
Ba8P,I4/mmm,-1.1852052474191304,-0.13168947193545893
BaAs,Fm-3m,-1.9838250853764494,-0.9919125426882247
BaAs,P4/mmm,-3.297807498459546,-0.8244518746148864
BaAs8,I4/mmm,0.9811486461211416,0.1090165162356824
BaBr,F-43m,-2.999193612848712,-1.499596806424356
BaBr2,I4/mmm,-6.373903149557954,-2.1246343831859846
BaBr3,P4/mmm,-5.925349831397173,-1.4813374578492933
BaCa2,P-3m1,0.1391154362560969,0.04637181208536563
BaCa3,I4/mmm,0.13748732320703105,0.03437183080175776
BaCa3,R-3m,0.14356220098861527,0.03589055024715382
BaCa4,I4/m,0.13087447311459144,0.026174894622918287
BaCa5,P4/mmm,0.1255201019999621,0.020920016999993685
BaCu,Immm,0.47330627495005473,0.11832656873751368
BaCu,Pm-3m,0.1528686629302749,0.07643433146513745
BaCu3,I4/mmm,1.6283545780630089,0.4070886445157522
BaCu3,Pmmm,0.9812129911818008,0.2453032477954502
BaCu5,Amm2,0.9666597665887835,0.16110996109813058
BaCu5,Cmmm,1.518328964685315,0.25305482744755253
BaFe2,I4/mmm,2.4107612733768193,0.8035870911256064
BaFe3,P4mm,3.5317169351459192,0.8829292337864798
BaFe4,I4/m,3.342473831411098,0.6684947662822196
BaGe,Fm-3m,-0.3650785238543466,-0.1825392619271733
BaGe2,I4/mmm,-0.8806453416612037,-0.29354844722040124
BaGe8,I4/mmm,0.6764809843883484,0.0751645538209276
BaIn,Pm-3m,-1.5755958286529648,-0.3938989571632412
BaIn2,Fm-3m,0.2507911444116955,0.08359704813723183
BaIn3,C2/m,-0.600970295566551,-0.15024257389163775
BaIn3,P4/mmm,-1.1896988783376106,-0.29742471958440264
BaIr,F-43m,2.2489797494611086,1.1244898747305543
BaIr,P4/mmm,0.9053512147474034,0.4526756073737017
BaIr2,Fm-3m,5.268913478494173,1.756304492831391
BaIr2,Fmmm,8.351586231873496,2.783862077291165
BaIr5,F-43m,3.8904288073886804,0.6484048012314467
BaNb3,Immm,4.041343466638995,1.0103358666597488
BaNi3,P4mm,1.5528934831417196,0.3882233707854299
BaP,Fm-3m,-1.3016371746454443,-0.6508185873227221
BaP2,P-3m1,-2.097048375247426,-0.6990161250824753
BaP3,Pm-3m,6.895651046881378,1.7239127617203445
BaPa,Fm-3m,2.8820375261681574,1.4410187630840787
BaPb3,P4/mmm,-0.6358654400262775,-0.15896636000656938
BaPb3,Pmmm,-1.0377816502365018,-0.25944541255912545
BaPd,Cmmm,-0.956722616710965,-0.4783613083554825
BaPd3,Immm,-0.6786703565797438,-0.16966758914493596
BaPd3,R-3m,-1.6491179027393486,-0.41227947568483714
BaPd5,Amm2,-0.4453106447952173,-0.07421844079920288
BaPd5,P6/mmm,-2.022148609473966,-0.337024768245661
BaRh2,I4/mmm,0.4162261256672828,0.13874204188909425
BaRh3,P4/mmm,1.3103684488493066,0.32759211221232665
BaRh3,Pmmm,1.1773236250393317,0.29433090625983294
BaSn5,Cmmm,-1.5550644088823233,-0.2591774014803872
BaSr7,Fm-3m,0.02810587049176938,0.0035132338114711725
BaTa2,P4/mmm,8.022866568480676,2.6742888561602256
BaTa3,P4/mmm,4.032484279874974,1.0081210699687435
BaTh,Fm-3m,2.5454255245527433,1.2727127622763716
BaU,Fm-3m,3.3718765964020054,1.6859382982010027
BaV2,I4/mmm,2.5500232161554734,0.8500077387184911
BaV3,P4/mmm,2.6375366089750116,0.6593841522437529
BaV5,P4/mmm,2.5948175991780076,0.43246959986300126
BaW3,Imm2,5.885602495318608,1.471400623829652
BaW3,Immm,5.821449339752682,1.4553623349381706
BaW3,Pmm2,4.55731672729442,1.139329181823605
BaW5,Amm2,5.399286317155841,0.8998810528593069
Bi16I4,C2/m,-2.810909454533757,-0.14054547272668785
BiBr,P-6m2,-0.6444009763355956,-0.3222004881677978
BiGe,P4/mmm,0.5339442181665457,0.26697210908327285
BiI,P4/mmm,0.4899131760621813,0.24495658803109066
BiP,P-6m2,0.4382458824937796,0.2191229412468898
Ca10Ge6,I4/mcm,-9.17055287258156,-0.5731595545363475
Ca12Mo4,Pnma,10.238493424778198,0.6399058390486374
Ca16W4,I-43m,21.660730219500685,1.0830365109750342
Ca17Nb12,I-43m,15.130494394572167,0.52174118601973
Ca18Mo6,Pmmn,16.270046068894544,0.6779185862039393
Ca2As2,R-3m,-1.4929645648067957,-0.37324114120169893
Ca2As6,P-1,-7.630888639903944,-0.953861079987993
Ca2Br2,Fd-3m,-2.768874818561901,-0.6922187046404753
Ca2Cu2,Cmcm,-0.612549141228369,-0.15313728530709225
Ca2Cu2,P4/nmm,0.03307808154998604,0.00826952038749651
Ca2Cu4,Pnnm,1.0980338890001669,0.18300564816669448
Ca2Cu6,Pm-3n,0.89748931641887,0.11218616455235875
Ca2Fe,P-3m1,2.114057888024455,0.7046859626748184
Ca2Fe2,R-3m,0.842143673552874,0.2105359183882185
Ca2Ga,I4/mmm,-0.6924906910318671,-0.23083023034395572
Ca2Ga2,Cmcm,-1.8673712614279836,-0.4668428153569959
Ca2Ge2,P-3m1,-1.4367252866574933,-0.35918132166437333
Ca2Ge2,R-3m,-1.2297349521250363,-0.30743373803125906
Ca2In2,P4/nmm,-1.1523930392797546,-0.28809825981993864
Ca2K6,Pm-3n,1.334851894441858,0.16685648680523224
Ca2Mo2,Imma,1.9843342954251852,0.4960835738562963
Ca2Nb,Fm-3m,3.5188576437786416,1.172952547926214
Ca2Nb2,Cmcm,1.4879320640068698,0.37198301600171746
Ca2Nb2,P2_1/m,2.0946926849753105,0.5236731712438276
Ca2Nb6,Cmcm,4.091973528630419,0.5114966910788024
Ca2P,I4/mmm,-2.1903195484092297,-0.7301065161364099
Ca2P2,Cmcm,-3.26771948707486,-0.816929871768715
Ca2Pb2,R-3m,-2.6834015161929443,-0.2236167930160787
Ca2Pb6,Cmcm,0.8774023166013123,0.10967528957516404
Ca2Pd,I4/mmm,-2.992483665119668,-0.49874727751994463
Ca2Rh,I4/mmm,-0.977682243492886,-0.32589408116429536
Ca2Rh,P4/mmm,-0.780336212472907,-0.2601120708243023
Ca2Rh4,I4/mcm,0.8814675263250109,0.14691125438750183
Ca2Rh4,I4_1/amd,-0.7586529371102557,-0.12644215618504262
Ca2Sb,I4/mmm,-3.6491198887422485,-0.608186648123708
Ca2Sb2,Pmma,-3.2413464878712617,-0.8103366219678154
Ca2Sb4,Cmcm,-2.692764702595909,-0.44879411709931816
Ca2Sn,I4/mmm,-1.3610132520001041,-0.4536710840000347
Ca2Sr,I4/mmm,0.04376305190962082,0.014587683969873607
Ca2Sr,P-3m1,0.1640609431892024,0.054686981063067464
Ca2Ta2,I4_1/amd,3.367745604004593,0.8419364010011483
Ca2V,P6/mmm,4.304779785577946,0.7174632975963243
Ca2W2,P-3m1,3.0068823975620695,0.7517205993905174
Ca2W2,P4/nmm,1.9566087948490356,0.4891521987122589
Ca3As,P4mm,-1.6797449548522465,-0.4199362387130616
Ca3Fe,R-3m,2.259717333958779,0.5649293334896948
Ca3Ga,P4/mmm,-0.1813606362885567,-0.045340159072139175
Ca3Ga8,Immm,-4.830172037025299,-0.4391065488204818
Ca3Ir,Fm-3m,-0.18730637141323214,-0.046826592853308036
Ca3Mn,Fm-3m,1.45609866310809,0.3640246657770225
Ca3Mo,Cmmm,3.2085340272120284,0.8021335068030071
Ca3Mo,Imm2,2.846562338588761,0.7116405846471903
Ca3Nb,Pm-3m,2.5195572200427563,0.6298893050106891
Ca3Ni,Fm-3m,0.9087038234259088,0.2271759558564772
Ca3P2,R-3m,-4.958599002646466,-0.9917198005292931
Ca3P5,Cmmm,-3.520848402849367,-0.4401060503561709
Ca3Pb,Immm,-1.0907141733136303,-0.2726785433284076
Ca3Pb,Pmm2,-1.1442707554722302,-0.28606768886805756
Ca3Rh,P4/mmm,-0.8770336176035958,-0.21925840440089894
Ca3V,P4/mmm,2.464054164796469,0.6160135411991172
Ca3W,Fm-3m,3.5348386706665345,0.8837096676666336
Ca3W,P4/mmm,2.940343824386016,0.735085956096504
Ca4Cr2,I4_1/amd,3.3544488932348244,0.5590748155391374
Ca4Ge,Im-3m,-0.5904118351567682,-0.11808236703135364
Ca4In,I4/m,-0.4024069388054201,-0.08048138776108402
Ca4Mn4,P2_13,5.0892737760894065,0.6361592220111758
Ca4Mo2,Cmcm,2.598609997445404,0.4331016662409007
Ca4Nb,Im-3m,3.719060509485111,0.7438121018970222
Ca4P2,Pnnm,-5.373007010321032,-0.8955011683868388
Ca4P6,Fdd2,-7.364136415173135,-0.7364136415173135
Ca4Sb2,Imma,-3.351934305465619,-0.5586557175776031
Ca4Sn2,C2/m,-2.6838874344098045,-0.4473145724016341
Ca4Ta2,I4/mcm,3.2095403463577803,0.53492339105963
Ca4W2,Fd-3m,10.584610596463417,1.7641017660772362
Ca4W4,P2_13,13.699801452351075,1.7124751815438843
Ca5Cu3,P4/mmm,-0.4527205359072788,-0.05659006698840985
Ca5Ga3,Cmmm,-0.9826367856614695,-0.12282959820768369
Ca5Ge,F-43m,1.6479385983218542,0.27465643305364235
Ca5Ge24,I-43m,-1.2155800638606848,-0.04191655392623051
Ca5P3,Cmmm,-7.593354855418454,-0.9491693569273068
Ca5Sb4,I4/mmm,-4.874022335796777,-0.541558037310753
Ca5Sn7,I4mm,-4.451329171504938,-0.3709440976254115
Ca6Cr2,I4/mmm,6.985103169679622,0.8731378962099527
Ca6Nb2,Pm-3n,5.230172746583772,0.6537715933229715
Ca6P2,Pmmn,-4.8281704646041135,-0.6035213080755142
Ca6Ta2,I4/mmm,5.860439116250131,0.7325548895312664
Ca7As6,R-3m,-6.27168356011434,-0.4824371969318723
Ca7Ge,Fm-3m,-0.11477583697687521,-0.014346979622109401
Ca8Br16,Fd-3m,-45.35361075509714,-1.8897337814623807
Ca8In4,Pnma,-5.030151785183847,-0.4191793154319872
CaAs3,Immm,-1.4009499579723723,-0.3502374894930931
CaAs3,R-3m,-0.6265791346699068,-0.1566447836674767
CaBi,P-6m2,-1.3000195399204832,-0.6500097699602416
CaBr,F-43m,-2.466284370199351,-1.2331421850996755
CaBr3,Immm,-5.432548193161033,-1.3581370482902582
CaBr3,Pm-3m,-4.486009729087677,-1.1215024322719191
CaCr,Fm-3m,2.2244817927272678,1.1122408963636339
CaCr3,Cmmm,2.9411191353632553,0.7352797838408138
CaCr3,Imm2,4.205288120682194,1.0513220301705486
CaCr3,Pmm2,3.1408203016116936,0.7852050754029234
CaCs,R-3m,0.5028996824347614,0.2514498412173807
CaCu,F-43m,1.0717532120576019,0.5358766060288009
CaCu,P4/mmm,0.8786339134648751,0.43931695673243754
CaFe,Cmmm,1.3340089081420334,0.6670044540710167
CaGa4,C2/m,-2.043807062884401,-0.4087614125768802
CaGe,R-3m,-0.7113172542176533,-0.3556586271088267
CaGe3,Fm-3m,-0.6428100825373075,-0.16070252063432688
CaI3,Pm-3m,-3.149808318508052,-0.787452079627013
CaIr3,Pm-3m,0.12213792599602158,0.030534481499005395
CaK,Fm-3m,0.9957850372551071,0.49789251862755357
CaMn3,Fm-3m,2.773573984352339,0.6933934960880848
CaMo2,P-3m1,2.062166256812173,0.6873887522707243
CaMo3,Pmmm,3.068155436610411,0.7670388591526027
CaNa3,Imm2,0.2596725829257922,0.06491814573144805
CaNb3,Fm-3m,2.598136050170048,0.649534012542512
CaNb3,Pm-3m,3.001769025401707,0.7504422563504267
CaNb4,Im-3m,10.3622635491446,2.0724527098289203
CaNi5,P6/mmm,-0.7252632610537475,-0.12087721017562458
CaNp,Fm-3m,3.030245415034347,1.5151227075171736
CaP,Fm-3m,-1.489223085544106,-0.744611542772053
CaP,Immm,-3.2591588237893347,-0.8147897059473337
CaPb3,R-3m,-0.7634780766014835,-0.19086951915037087
CaPb5,Amm2,-0.6574675990092267,-0.10957793316820445
CaRh2,I4/mmm,-0.2149930789383525,-0.0716643596461175
CaRh4,I4/m,-0.06179673023600074,-0.012359346047200149
CaSb,P-6m2,-1.8591660310968194,-0.9295830155484097
CaSb,P4/mmm,-2.4329848562339786,-0.8111685498979122
CaSb3,Cmmm,-1.0887311473511065,-0.27218278683777664
CaSn,Pm-3m,-2.4191692346525198,-0.6047923086631299
CaTa,Fm-3m,4.170044028778191,2.0850220143890956
CaTa,Pm-3m,2.6117554613198024,1.3058777306599012