formula,space_group,formation_energy_value,formation_energy_value_per_atom
SmP,F-43m,-2.8382664627951115,-1.4191332313975558
SmSr,P-6m2,-0.2861644631459015,-0.14308223157295075
SmTh,P4/mmm,-0.45026517946321043,-0.22513258973160521
SmW,F-43m,5.30913575025917,2.654567875129585
SmW,P-6m2,1.2563109006236761,0.6281554503118381
SmW,P4/mmm,1.2822761727600458,0.6411380863800229
SmYb,P-6m2,-0.6047173869372964,-0.3023586934686482
SmYb3,Pm-3m,-0.49588356729269734,-0.12397089182317433
Sn12Sb17,I-43m,2.589531203409564,0.089294179427916
Sn17P12,I-43m,6.236779004914453,0.2150613449970501
Sn2Br4,Fd-3m,1.5500156718054319,0.2583359453009053
Sn2Ge2,R-3m,1.197003882867138,0.2992509707167845
Sn2P4,Fd-3m,2.5376574436028356,0.4229429072671393
Sn2P4,Pnnm,-0.3360091166992625,-0.05600151944987708
Sn2Ta2,R-3m,1.6525366399521157,0.41313415998802894
Sn2Ta6,Pm-3n,-0.8979897557778003,-0.11224871947222503
Sn2W,I4/mmm,1.8692816216754444,0.44161467077812533
Sn2W,P4/mmm,1.612593448469763,0.537531149489921
Sn2W2,Cmcm,1.8705939998923533,0.4676484999730883
Sn2W2,Imma,2.4540238459243575,0.6135059614810894
Sn2W2,P4/nmm,2.0969817350062483,0.5242454337515621
Sn2W4,Cmcm,3.3051519360904322,0.550858656015072
Sn2W4,I4/mcm,5.375138737978759,0.8958564563297932
Sn2W4,I4_1/amd,5.386685206094121,0.8977808676823535
Sn3As,Pm-3m,-0.7221371951925555,-0.18053429879813887
Sn3Br,P4/mmm,-0.5965273061309571,-0.14913182653273926
Sn3Ge2,P-3m1,0.5887571550182322,0.11775143100364645
Sn3P3,Cm,0.3025582483300546,0.05042637472167577
Sn3Sb,Immm,0.1340027891527633,0.03350069728819083
Sn3V,Cmmm,1.4841093033514987,0.3710273258378747
Sn3W,Imm2,1.1586614872853964,0.2896653718213491
Sn3W,Pmmm,1.6951527716578845,0.4237881929144711
Sn4Br4,P2_13,-2.9998786067226284,-0.37498482584032855
Sn4Br8,Pa-3,-10.371883025704467,-0.8643235854753722
Sn4P,Im-3m,0.8121507321453265,0.1624301464290653
Sn4Ta2,Cm,0.8759412816927394,0.14599021361545658
Sn4W,I4/m,2.4883674070027375,0.4976734814005475
Sn4W2,Cmcm,2.511688131148702,0.4186146885247837
Sn4W2,I4/mcm,0.9763155660054039,0.16271926100090064
Sn4W2,I4_1/amd,4.291115870928046,0.7151859784880076
Sn4W8,Pnma,6.307657899451399,0.5256381582876166
Sn6Sb2,Pm-3n,0.8297748007564145,0.10372185009455182
Sn6W10,I4/mcm,9.337456569349797,0.5835910355843623
Sn6W2,Pmmn,3.8293119306223034,0.4786639913277879
Sn6W4,Fdd2,6.7619072055945395,0.676190720559454
Sn8W4,I4_1/amd,5.9809204119542585,0.4984100343295215
SnBr4,Im-3m,-1.329971580611243,-0.2659943161222486
SnGe2,P-3m1,0.7791440187083509,0.25971467290278366
SnGe4,Im-3m,3.169161870640867,0.6338323741281734
SnP,F-43m,0.26963059361095,0.134815296805475
SnP,Fm-3m,-0.2648981914134033,-0.09466216481156771
SnP4,Im-3m,4.580865219354049,0.9161730438708098
SnSb,F-43m,-0.13289897233894,-0.06644948616947
SnSb,Pm-3m,0.18076049658831472,0.09038024829415736
SnSb3,Fm-3m,0.6528578964618497,0.16321447411546242
SnTa,F-43m,3.1133884191282455,1.5566942095641227
SnTh,P-6m2,-0.9579255996574112,-0.4789627998287056
SnV,F-43m,2.3831386808942625,1.1915693404471313
SnW,Cmmm,1.527633096443708,0.763816548221854
SnW,F-43m,3.9410779708824144,1.9705389854412072
SnW2,I4/mmm,1.9510484375338404,0.4335061680544653
SnW3,Cmmm,1.6656354101540956,0.4164088525385239
SnW3,I4/mmm,2.028215246607431,0.5070538116518577
SnW3,Immm,1.5253067334781463,0.38132668336953657
SnW3,P4/mmm,2.0603810164052376,0.5150952541013094
SnW4,I4/mmm,4.088664488378512,0.8177328976757025
SnYb3,Pm-3m,-2.384174052324939,-0.5960435130812347
Sr16W4,I-43m,23.075325505661155,1.1537662752830578
Sr2As,I4/mmm,-2.16305524660579,-0.7210184155352634
Sr2As4,Pnnm,-3.364074020239091,-0.5606790033731818
Sr2Br,Fmmm,-11.55016227590253,-0.9625135229918774
Sr2Br6,Pmmn,-13.462593116210364,-1.6828241395262955
Sr2W2,Fd-3m,5.569725241965365,1.3924313104913413
Sr2W2,R-3m,3.875885943610527,0.9689714859026317
Sr3As,P-6m2,-2.1501321102171804,-0.5375330275542951
Sr3Br,Immm,-2.6731808823527947,-0.6682952205881987
Sr3Sb,Immm,-2.020821445094141,-0.5052053612735352
Sr3Ta,I4/mmm,3.4969895838829164,0.8742473959707291
Sr4As2,Pnnm,-5.216706447476096,-0.8694510745793492
Sr4Bi2,I4/mmm,-4.729999368569466,-0.788333228094911
Sr4Br,Im-3m,-1.1893051173688018,-0.23786102347376037
Sr4Br8,Pnma,-25.882168420366604,-2.1568473683638834
Sr4V2,Cmcm,4.2114224331382495,0.7019037388563749
Sr6Br18,Pmmn,-37.83161454944776,-1.5763172728936565
Sr6Br4,R-3c,-11.921356959902912,-1.1921356959902911
Sr8Bi12,Pnna,-15.011318641547383,-0.7505659320773692
Sr8Bi6,I-43d,-13.00977863291424,-0.9292699023510173
Sr8Br16,Fd-3m,-49.26973369329727,-2.052905570554053
SrAs,Immm,-3.261546726594922,-0.8153866816487305
SrAs,P-6m2,-1.8921594859910256,-0.9460797429955128
SrAs,P4/mmm,-3.448615439316592,-0.862153859829148
SrAs2,Fmmm,2.8521301264883565,0.9507100421627855
SrAs3,Pm-3m,-2.730700456195766,-0.6826751140489415
SrBi,P-6m2,-1.260954147475938,-0.630477073737969
SrBi,P4/mmm,-1.1563354193430433,-0.5781677096715216
SrBr,Fm-3m,-2.7851500485885072,-1.3925750242942536
SrBr,P-6m2,-2.9667535914813645,-1.4833767957406823
SrGe3,R-3m,0.10589146823232198,0.026472867058080496
SrI,Fm-3m,-2.285054816720295,-1.1425274083601475
SrI,P-6m2,-2.3611299299333646,-1.1805649649666823
SrI,Pm-3m,-2.1405148388307427,-1.0702574194153713
SrTh,P-6m2,0.6947691627308341,0.34738458136541706
SrV,P-6m2,2.3876666770155275,1.1938333385077637
SrW,Pm-3m,3.988056005646441,1.9940280028232205
SrW2,Fm-3m,9.682819101683567,3.2276063672278554
SrW3,Pm-3m,6.797730173026395,1.6994325432565986
SrW4,Im-3m,16.4769491215624,3.2953898243124797
Ta10Ge6,I4/mcm,-7.60961836231715,-0.47560114764482186
Ta12As12,Pbcm,-4.803471327047646,-0.20014463862698526
Ta2Ge,I4/mmm,-1.0258777740114269,-0.17097962900190447
Ta2Ge2,Cmcm,-0.2512140076693683,-0.06280350191734207
Ta2Ge2,P4/nmm,0.40694107540962676,0.10173526885240669
Ta2Ge4,I4_1/amd,1.4937204592569628,0.24895340987616046
Ta2Ge6,I4/mmm,0.8949728685033804,0.11187160856292255
Ta2P,I4/mmm,-1.7181117423523773,-0.28635195705872957
Ta2P2,P4/nmm,-0.15905373437845327,-0.03976343359461332
Ta2P4,I4/mcm,-3.5744488759599378,-0.5957414793266563
Ta2P6,I4/mmm,-1.4571725498093144,-0.1821465687261643
Ta2Sb4,Cmcm,0.3468352581618319,0.05780587636030532
Ta2V2,Cmcm,1.2526489992863645,0.31316224982159113
Ta2V2,Imma,0.10738294553515715,0.026845736383789287
Ta2V4,Cmcm,0.26830030148513373,0.04471671691418896
Ta2W2,P-3m1,1.684160147101636,0.421040036775409
Ta2W2,P4/nmm,1.1083171377648924,0.2770792844412231
Ta2W2,R-3m,1.2316810101800826,0.30792025254502065
Ta3Sb,P4/mmm,-0.02721381033234138,-0.006803452583085345
Ta3Sb5,Cmmm,2.9902104463338333,0.37377630579172916
Ta3V,Cmmm,1.1684935405641639,0.29212338514104097
Ta4Ge2,I4_1/amd,3.301676492751149,0.5502794154585248
Ta4Sb8,Pnma,3.1201462956268387,0.2600121913022366
Ta4V12,Pnma,2.9836128374400914,0.18647580234000571
Ta4V6,Fdd2,1.9939840943698783,0.19939840943698783
Ta5Br4,I4/mmm,1.76856564548914,0.1965072939432378
Ta5Sb4,I4/m,0.8484339382743826,0.09427043758604252
Ta5V,Cmmm,0.17307535216126269,0.028845892026877113
TaBi,F-43m,3.088167215511941,1.5440836077559705
TaGe2,I4/mmm,-0.5655357686850664,-0.18851192289502214
TaGe3,Cmmm,0.841388304144008,0.210347076036002
TaGe3,Immm,0.5496775614567859,0.13741939036419648
TaGe3,Pmm2,0.8567307808107252,0.2141826952026813
TaGe4,I4/m,0.887731068944845,0.177546213788969
TaGe5,Cmmm,1.214818463961798,0.20246974399363302
TaP,Pm-3m,-1.1517132408144484,-0.5758566204072242
TaP2,I4/mmm,-1.6919292931353063,-0.5639764310451021
TaP2,P-3m1,0.00477382045504271,0.0015912734850142367
TaP2,P6/mmm,0.5264001957209175,0.17546673190697248
TaP3,R-3m,0.13777557837794419,0.034443894594486046
TaP5,P4/mmm,1.8723057120163915,0.3120509520027319
TaSb3,Cmmm,1.9179951779360742,0.47949879448401855
TaSb3,P4/mmm,0.5641100665553651,0.14102751663884128
TaSb4,I4/mmm,6.658350470986125,1.331670094197225
TaV,P-6m2,0.7621798444971404,0.3810899222485702
TaV2,Fmmm,0.3846115092170024,0.06410191820283373
TaV3,Fm-3m,0.21366808472920695,0.05341702118230174
TaV5,Cmmm,0.17125789922084778,0.02854298320347463
TaW3,I4/mmm,1.100251643423796,0.275062910855949
TaYb,F-43m,6.458606451367328,3.229303225683664
Th6Bi8,I-43d,-9.539157272859342,-0.6813683766328101
Th6Ge4,P4/mbm,-8.316474113878478,-0.8316474113878478
ThBr,F-43m,-0.34082056511369707,-0.17041028255684854
ThGe,R-3m,-1.5615378538930784,-0.7807689269465392
ThI,Fm-3m,-0.5671679070507221,-0.28358395352536103
UBi,F-43m,1.4742038618008326,0.7371019309004163
UBr,Fm-3m,-0.7970414538193697,-0.3985207269096849
UGe,R-3m,-0.7194351210601422,-0.3597175605300711
UI,Fm-3m,0.009207736677042888,0.004603868338521444
UP,Fm-3m,-2.3473824962147916,-1.1736912481073958
USb,P-6m2,-0.5743853821961711,-0.28719269109808554
V10W6,I4/mcm,4.5125884994749015,0.28203678121718134
V12As4,Pnma,-5.008799885883519,-0.31304999286771995
V12W4,Pnma,2.0729850676982267,0.12956156673113917
V16P8,Fd-3m,-13.735677683972057,-0.5723199034988357
V18Sb6,Pmmn,-0.18023360514894193,-0.007509733547872581
V18W6,Pmmn,3.466684580432087,0.14444519085133697
V26W2,Fm-3c,11.566449806896571,0.413087493103449
V2As2,Cmme,-0.7061612687058023,-0.17654031717645058
V2Br2,I4_1/amd,2.7810483559954804,0.6952620889988701
V2Br2,Imma,0.819755682765237,0.20493892069130926
V2Br2,P4/nmm,-0.593577714149216,-0.148394428537304
V2Br4,I4_1/amd,0.0936660667196918,0.015611011119948634
V2Ge,I4/mmm,-0.9222548641984183,-0.3074182880661394
V2Ge2,P4/nmm,-0.8049352471564006,-0.20123381178910016
V2P,P-3m1,-0.8324705752757247,-0.27749019175857487
V2Sb2,Pmmn,0.8168228020978177,0.20420570052445441
V2W2,Cmcm,2.1610401831235535,0.5402600457808884
V3Br,Cmmm,1.1228674521290323,0.28071686303225807
V3Br,I4/mmm,2.251474130641089,0.5628685326602723
V3Br,P4/mmm,0.9822270159335904,0.2455567539833976
V3Ge,I4/mmm,-0.7348124020818148,-0.1837031005204537
V3Ge,P4/mmm,-0.8978288231206477,-0.22445720578016193
V3P2,P-3m1,-2.603375347234241,-0.5206750694468483
V3Sb,Immm,-0.37208061867804076,-0.09302015466951019
V3W,P4/mmm,-0.13453365423796507,-0.03363341355949127
V4As2,Cmcm,-2.012714427487289,-0.33545240458121484
V4Br2,I4_1/amd,3.6178369183755237,0.602972819729254
V4P,Im-3m,1.6614972821954765,0.3322994564390953
V4P4,P2_13,-6.29671624890419,-0.7870895311130237
V4W2,I4_1/amd,4.347925288918145,0.4966690632376422
V4W2,Pnnm,3.868501442828716,0.6447502404714527
V4W3,I4/mmm,-0.4864998926116897,-0.06949998465881281
V4W8,Pa-3,16.712987595694912,1.3927489663079093
V6Br2,Cmcm,2.902636788774558,0.36282959859681974
V6W18,Pmmn,10.664308464601618,0.4443461860250674
V6W2,I4/mmm,1.0174138783365834,0.12717673479207292
V7P6,R-3m,-4.279027995231658,-0.32915599963320447
V8As16,Fd-3m,1.4997327621171053,0.06248886508821272
V8As4,Pa-3,1.4872560208369094,0.12393800173640912
V8W4,Pnma,0.6347599330795362,0.05289666108996135
VAs,F-43m,0.6407427986244691,0.3203713993122346
VAs5,Amm2,0.7639581893617553,0.1273263648936259
VAs7,Fm-3m,3.812998272573388,0.4766247840716735
VBr2,I4/mmm,-1.2191038885051015,-0.40636796283503385
VBr3,I4/mmm,0.46662180922513663,0.11665545230628416
VBr3,P4/mmm,0.06911547251264742,0.017278868128161855
VGe3,P4/mmm,0.5293850088060879,0.13234625220152196
VP3,Pm-3m,1.5831213730276694,0.39578034325691736
VP3,R-3m,0.08015260640283373,0.02003815160070843
VP4,Im-3m,0.7404749574347598,0.14809499148695196
VSb,P-6m2,-0.10752193646662178,-0.05376096823331089
VW2,I4/mmm,-0.42601577811128344,-0.09472737685708192
VW2,Immm,3.486172943167569,0.5810288238612616
VW5,F-43m,2.5899407056163994,0.4316567842693999
VW7,Fm-3m,3.6135068978247915,0.45168836222809894
W12As4,Pnma,6.975233323428455,0.43595208271427843
W16Sb4,I23,20.664368646901778,1.0332184323450888
W24P5,I-43m,12.517794426468015,0.43164808367131086
W2As,P-3m1,1.319114441710763,0.4397048139035877
W2As3,R-3m,1.2766643730656497,0.2553328746131299
W2As4,Cmcm,1.9701199174820374,0.3283533195803396
W2P,I4/mmm,0.0435509327267134,0.014516977575571133
W2P2,I4_1/amd,1.1815737543067115,0.2953934385766779
W2Sb2,Fd-3m,3.7064725394569216,0.9266181348642304
W2Sb6,Cmcm,2.605473397243273,0.3256841746554091
W2Sb6,Pm-3n,5.937929230751287,0.7422411538439109
W2Sb6,Pmmn,5.563233081365009,0.6954041351706262
W3As,P4/mmm,1.7020752811046407,0.42551882027616017
W3As2,P-3m1,3.595772123006796,0.7191544246013593
W3P,I4/mmm,1.363516176351986,0.3408790440879965
W3Sb,Fm-3m,2.457151631920837,0.6142879079802093
W3Sb,Pmm2,2.132340255909959,0.5330850639774898
W4P3,I4/mmm,-1.4189242441276377,-0.2027034634468054
W4Sb16,I-43m,17.258143691544063,0.8629071845772032
W4Sb2,Cmcm,3.074170599695506,0.5123617666159177
W4Sb2,Pnnm,4.126384915043182,0.6877308191738637
W5As,Cmmm,1.3787351208030572,0.22978918680050953
W5P,F-43m,4.560389061429696,0.760064843571616
W5Sb,Cmmm,1.9331095466623793,0.32218492444372987
W5Sb,F-43m,3.8639584555284188,0.6439930759214031
W5Sb24,I-43m,11.669258372662455,0.4023882197469812
W6As10,I4cm,4.9843362918522445,0.3115210182407653
W6As6,P-3m1,4.297232221971456,0.35810268516428795
W8Br,I4/mmm,6.723783447208348,0.7470870496898164
W8Sb16,Fd-3m,15.438173063116892,0.6432572109632039
WAs2,I4/mmm,0.617317431248452,0.20577247708281732
WAs2,P-3m1,0.17488382439535735,0.05829460813178578
WAs2,P4/mmm,1.711524539277054,0.570508179759018
WAs3,Imm2,0.5227764607186636,0.1306941151796659
WAs3,P4/mmm,0.9319873046427603,0.23299682616069006
WBr2,I4/mmm,1.7359472400921074,0.5786490800307025
WP,F-43m,1.0363374941554255,0.5181687470777128
WP,Pm-3m,-0.6574424220290851,-0.16436060550727127
WP3,Fm-3m,1.5597181073899247,0.38992952684748117
WSb,F-43m,3.194964649997381,1.5974823249986905
WSb,P-6m2,1.1043954193266199,0.5521977096633099
WSb,Pm-3m,1.9158680856429129,0.6381690630783674
WSb3,Pm-3m,3.9639916230126637,0.9909979057531659
YbBi,F-43m,-0.2838860922881983,-0.14194304614409914
YbBr,Fm-3m,-2.8378108102919404,-1.4189054051459702
YbGe,P4/mmm,-1.6602149997279136,-0.8301074998639568
YbP,R-3m,-1.6965305800207968,-0.8482652900103984