formula,space_group,formation_energy_value,formation_energy_value_per_atom
MoTa2,I4/mmm,-0.5998875670779711,-0.1497096483665972
MoV,Pm-3m,-0.5071381257830723,-0.12678453144576807
MoV3,Fm-3m,-0.2527620194185687,-0.06319050485464217
MoV4,I4/mmm,2.8387195817656874,0.5677439163531375
MoW,P-6m2,0.9447981772019602,0.4723990886009801
MoW,Pm-3m,-0.04625305774548849,-0.011563264436372123
MoW2,I4/mmm,-0.016250408074391487,-0.005416802691463829
MoW2,Immm,1.3921859836966988,0.46406199456556624
MoW3,P4/mmm,-0.0009886577567144172,-0.0002471644391786043
MoW3,Pmm2,1.935500844735003,0.48387521118375076
MoW5,Cmmm,0.007330156507691754,0.001221692751281959
MoW5,F-43m,2.6430118495958794,0.4405019749326466
MoYb,P4/mmm,1.1854706757947433,0.5927353378973717
Na12P4,Pnma,-5.89929741240681,-0.3687060882754256
Na2P,I4/mmm,-0.5568187456020413,-0.18560624853401375
Na2P2,Cmcm,-1.477270910520403,-0.36931772763010073
Na2P2,Fd-3m,0.5065105414243316,0.1266276353560829
Na2P2,Imma,-1.3576701640703952,-0.3394175410175988
Na2P2,P4/nmm,-0.22221362182507676,-0.05555340545626919
Na2Pb,Immm,-0.4588384670749548,-0.1529461556916516
Na2Pb2,Imma,-0.6250415687422581,-0.15626039218556453
Na2Pb2,Pmmn,-0.41916651692540086,-0.10479162923135021
Na2Pd,Fmmm,-0.12525348436414951,-0.0417511614547165
Na2Pd,Immm,-0.1771070625836071,-0.05903568752786903
Na2Pd2,Imma,-0.29089611195086285,-0.07272402798771571
Na2Pd4,Cmcm,-0.05742145612612859,-0.009570242687688099
Na2Pd6,I4/mmm,-0.03184066756224979,-0.003980083445281224
Na2Pt,I4/mmm,0.014739480908512625,0.004913160302837541
Na2Pt,P4/mmm,-0.3284062887462973,-0.10946876291543244
Na2Pt2,Cmcm,-0.26643754164805156,-0.06660938541201289
Na2Pt2,Fd-3m,-0.05553930309713451,-0.013884825774283627
Na2Pt2,P4/nmm,0.13250242581771587,0.03312560645442897
Na2Pt2,Pmmn,-0.24917094031799358,-0.062292735079498396
Na2Pt4,Cmcm,-0.30444425416206755,-0.050740709027011256
Na2Pt4,I4/mcm,1.8915762067835082,0.3152627011305847
Na2Rh4,Cmcm,1.4728914110782156,0.24548190184636928
Na2Rh4,Fd-3m,1.5410779038610976,0.2568463173101829
Na2Rh4,Pnnm,2.9541692317371187,0.4923615386228531
Na2Sn,I4/mmm,-0.43989933753596233,-0.14663311251198743
Na2Sn2,Pmma,-0.8466364069007675,-0.21165910172519187
Na2Sr2,Fd-3m,0.4217745020401873,0.10544362551004682
Na3Ge,Pmmm,0.1653280928489469,0.041332023212236724
Na3Pb,Pm-3m,0.6075404322996389,0.15188510807490974
Na3Pd,Imm2,-0.04968924799757435,-0.012422311999393587
Na3Pd,Immm,-0.05666413656388869,-0.014166034140972172
Na3Pt,I4/mmm,-0.22769624802680966,-0.056924062006702414
Na3Rh,Cmmm,1.2453102321014464,0.3113275580253616
Na3Rh,Immm,1.316590818230921,0.32914770455773024
Na3Sn,Pm-3m,-0.6960262215969495,-0.17400655539923737
Na3V,Pmm2,2.53255828256016,0.63313957064004
Na4P,I4/mmm,1.0035760475083766,0.20071520950167532
Na4P2,Cmc2_1,-1.2546814541364046,-0.20911357568940078
Na4P2,I4/mcm,-1.4149003751553426,-0.2358167291925571
Na4P2,P4_2/mnm,-0.8769379350782867,-0.14615632251304778
Na4P20,Pnma,-6.681839558373625,-0.278409981598901
Na4Pb,Im-3m,-0.32134884368701755,-0.0642697687374035
Na4Pb2,Cmcm,-0.9190281604221759,-0.15317136007036267
Na4Pb2,Fd-3m,-0.03576253267872964,-0.005960422113121607
Na4Pd,I4/m,-0.12937088152564868,-0.025874176305129736
Na4Pd2,Cmcm,-0.13663636961392367,-0.02277272826898728
Na4Pt2,Cmcm,-0.7642752459645301,-0.12737920766075503
Na4Pt2,Fd-3m,1.5150397359915697,0.2525066226652616
Na4Pt2,I4/mcm,-1.088124626315647,-0.18135410438594116
Na4Pt4,P2_13,1.8656881240513243,0.23321101550641554
Na4Pt5,I4/mmm,0.007721340607162119,0.0008579267341291244
Na4Pt8,I4_1/amd,-0.37494721913260776,-0.03124560159438398
Na4Pt8,Pnma,-1.0886410269299063,-0.09072008557749218
Na4Sr,Im-3m,1.8842460236070488,0.37684920472140976
Na5Pd,P4/mmm,-0.1297306731561445,-0.021621778859357416
Na5Pt,Cmmm,-0.1520755005490404,-0.0253459167581734
Na5Pt,F-43m,1.0261072320580293,0.17101787200967156
Na5Pt4,I4/mmm,-0.057105344597687235,-0.006345038288631915
Na6Pb2,Pm-3n,-0.9451449494751625,-0.11814311868439531
Na6Pd2,I4/mmm,-0.1094217358834797,-0.013677716985434962
Na7Pt,Fm-3m,0.4408162396491768,0.0551020299561471
Na8Pd4,Pnma,-0.16213879534799958,-0.013511566278999965
NaBr,Cmmm,-3.03007203139794,-1.51503601569897
NaBr,Fm-3m,-3.4385530879251656,-1.7192765439625828
NaBr,Pm-3m,-3.1413941967478354,-1.5706970983739177
NaBr3,Cmmm,-2.437971323413425,-0.6094928308533563
NaBr5,Cmmm,-2.8080062261984597,-0.4680010376997433
NaI,F-43m,-2.6313925557528632,-1.3156962778764316
NaNi,P-6m2,0.9461524987176615,0.47307624935883075
NaP,Cmmm,-0.38934472647865803,-0.09733618161966451
NaP,P-6m2,0.24818674957928089,0.12409337478964044
NaP3,Cmmm,1.2469570641227357,0.3117392660306839
NaP3,Imm2,0.5840700688847349,0.14601751722118372
NaP3,Immm,0.3048029248710762,0.07620073121776905
NaPb,P-6m2,-0.22466760982818101,-0.11233380491409051
NaPb,Pm-3m,-0.2712133505928209,-0.13560667529641046
NaPb3,Fm-3m,-0.21848778379254696,-0.05462194594813674
NaPb4,Im-3m,1.124902142154875,0.22498042843097502
NaPd2,Immm,-0.12952079331602562,-0.04317359777200854
NaPd3,C2/m,-0.23876024819666952,-0.05969006204916738
NaPd3,Cmmm,0.14174214117650763,0.03543553529412691
NaPd4,I4/m,-0.04470904297730982,-0.008941808595461963
NaPt,P-6m2,-0.39344171370161085,-0.19672085685080543
NaPt,P4/mmm,-0.28164422263460587,-0.14082211131730293
NaPt,Pm-3m,0.37083089538886327,0.18541544769443163
NaPt2,I4/mmm,-0.14046725424156925,-0.046822418080523086
NaPt2,P4/mmm,0.9818913145310884,0.3272971048436961
NaPt3,Fm-3m,0.4951854057164873,0.12379635142912182
NaPt3,P4/mmm,-0.12762412747894913,-0.031906031869737284
NaPt4,Im-3m,4.6381177221922165,0.9276235444384433
NaPt5,Cmmm,-0.30098897240845446,-0.05016482873474241
NaRh,Pm-3m,1.4552223114254978,0.7276111557127489
NaSr,P4/mmm,0.0481366058842041,0.02406830294210205
NaSr,Pm-3m,0.039301831040146507,0.019650915520073253
NaTa,P4/mmm,2.1649639817254336,1.0824819908627168
Nb10Ge6,I4/mcm,-9.831012162177657,-0.6144382601361036
Nb10Ge6,P6_3/mcm,-8.993441788309113,-0.5620901117693196
Nb10Ni6,I4/mcm,-1.4859427775519407,-0.0928714235969963
Nb10P6,I4/mcm,-13.291015586851017,-0.8306884741781886
Nb12W4,Cm,-0.40070956530911417,-0.025044347831819636
Nb24As8,P4_2/n,-17.452941452145808,-0.5454044203795565
Nb2As2,Cmcm,-1.8573740501597449,-0.4643435125399362
Nb2As2,Imma,-0.9070919716557704,-0.2267729929139426
Nb2As2,P4/nmm,-1.3141245392611403,-0.32853113481528506
Nb2Ge,P-3m1,-0.16807447884879423,-0.05602482628293141
Nb2Ni3,P-3m1,1.2627044401342786,0.2525408880268557
Nb2Ni4,I4_1/amd,0.19980352429877257,0.033300587383128764
Nb2P,I4/mmm,-1.2491006327117393,-0.4163668775705798
Nb2P2,P4/nmm,-0.23487309747709872,-0.05871827436927468
Nb2Pb,Fmmm,1.4990241163829978,0.24983735273049965
Nb2Pb2,Cmcm,1.7733845944934856,0.4433461486233714
Nb2Pb4,Cmcm,3.1982162407309467,0.5330360401218244
Nb2Pb4,Pnnm,3.1674984598156684,0.527916409969278
Nb2Pt2,Pmma,-2.582945955487986,-0.6457364888719965
Nb2Sr2,Cmcm,3.2924952606586473,0.8231238151646618
Nb2Ta,P-3m1,-0.018992343724221428,-0.006330781241407142
Nb2Ta3,P-3m1,3.071819484783248,0.6143638969566496
Nb2Ta4,C2/m,1.6975823327398416,0.2829303887899736
Nb2V4,I4/mcm,3.788190226451391,0.6313650377418986
Nb2V4,I4_1/amd,4.270994778429138,0.47133481906416874
Nb2V6,I4/mmm,1.2648917521636633,0.15811146902045792
Nb2W,I4/mmm,-0.1103349977103889,-0.036778332570129635
Nb2W,Immm,2.427261601107091,0.40454360018451513
Nb2W2,Cmcm,1.334962373130864,0.333740593282716
Nb2W4,Pnnm,0.9028586187078247,0.15047643645130412
Nb2W6,Pmmn,2.9606427508713438,0.37008034385891797
Nb3Bi,Fm-3m,1.0310469355595586,0.25776173388988965
Nb3Br,Pmm2,1.6373476353557805,0.40933690883894513
Nb3Br5,Cmmm,-0.4920648402878953,-0.061508105035986915
Nb3Ni,Fm-3m,0.08284832591782276,0.02071208147945569
Nb3P,P4/mmm,-0.5496205394720803,-0.13740513486802008
Nb3P4,I4/mmm,-5.328876309496287,-0.7612680442137554
Nb3Pb,Pm-3m,0.7057233242620171,0.17643083106550428
Nb3Sn,Pm-3m,-0.6507161580167846,-0.16267903950419615
Nb3V,I4/mmm,1.3682038775338583,0.3420509693834646
Nb3V4,I4/mmm,0.25651583465146643,0.03664511923592378
Nb4As5,I4/mmm,0.3592227174200957,0.039913635268899524
Nb4Br,I4/mmm,4.09764439463698,0.819528878927396
Nb4I16,Cmc2_1,-11.897538691625734,-0.5948769345812868
Nb4Ni,Im-3m,3.699757581333806,0.7399515162667611
Nb4Ni2,I4/mcm,-1.0076721021579829,-0.16794535035966382
Nb4Pb2,Cmcm,1.2412619837117376,0.2068769972852896
Nb4Pb4,Pnma,4.588497399615541,0.5735621749519426
Nb4Sn,Im-3m,6.430298614991187,1.2860597229982376
Nb4Sn8,Fddd,-3.6291389172636883,-0.30242824310530736
Nb4Sr2,Cm,3.985805238626412,0.664300873104402
Nb4W4,Pnma,2.496486605567611,0.3120608256959514
Nb4W8,Pnma,1.4983102102351893,0.12485918418626576
Nb5Br3,Cmmm,4.6464615884269165,0.5808076985533646
Nb5W4,I4/mmm,-0.44668684136469494,-0.04963187126274388
Nb6Br4,R-3c,4.888282317326585,0.4888282317326585
Nb6Pd4,Fdd2,-1.229078235475086,-0.1229078235475086
Nb6Pt2,Cmcm,10.578238325292205,0.6611398953307628
Nb6Pt2,Pm-3n,-3.354788659957066,-0.41934858249463325
Nb6Rh2,I4/mmm,-0.5936963534800412,-0.07421204418500515
Nb6V10,I4/mcm,4.216787865122797,0.2635492415701748
Nb8Br40,Pnma,-47.540421275025665,-0.9904254432297014
Nb8Ni,I4/mmm,-0.1932175163174179,-0.021468612924157544
Nb8P,I4/mmm,-1.3270625843223058,-0.147451398258034
NbAs3,P4/mmm,0.20138984406084326,0.050347461015210815
NbBi3,Pm-3m,1.884251639048692,0.471062909762173
NbBr3,Immm,-2.3414432716021647,-0.5853608179005412
NbBr3,P4/mmm,-1.5402688302284577,-0.38506720755711443
NbGe,R-3m,-0.1503197724632077,-0.07515988623160386
NbGe3,R-3m,0.6187215666819554,0.15468039167048886
NbI,F-43m,2.099978310683202,1.049989155341601
NbNi,P4/mmm,-0.08122249804848813,-0.04061124902424407
NbNi2,I4/mmm,-1.08391585196744,-0.2739531494079238
NbNi2,P-3m1,-0.07460284742119505,-0.02486761580706502
NbP2,I4/mmm,-1.665473522421835,-0.5551578408072784
NbP3,P4/mmm,-0.6642496499090971,-0.16606241247727427
NbPb3,Cmmm,2.0285005990500515,0.5071251497625129
NbPd2,P4/mmm,1.0509139530757956,0.3503046510252652
NbPd3,I4/mmm,-1.7562571474410689,-0.4390642868602672
NbPt2,Immm,-3.182733253013213,-0.7034685635945616
NbRh3,I4/mmm,-1.715421275750522,-0.4288553189376305
NbSb3,Pmm2,1.1046222371655574,0.27615555929138935
NbSr3,Immm,2.9080157618240943,0.7270039404560236
NbTa2,P-3m1,-0.023387044361960818,-0.00779568145398694
NbU,P4/mmm,0.4883170580294838,0.2441585290147419
NbV2,I4/mmm,0.14478317301654542,0.03987867707503649
NbV5,P4/mmm,0.1964141577293077,0.03273569295488462
NbW3,Cmmm,1.887806713650889,0.47195167841272223
NbW3,Immm,-0.2707562346412189,-0.06768905866030472
NbW3,Pmm2,1.8511372896462817,0.4627843224115704
Ni12Sr4,Pnma,0.9601776267765558,0.06001110167353474
Ni17Br12,I-43m,9.178670331009599,0.3165058734830896
Ni24Ta5,I-43m,-4.857515407547368,-0.16750053129473683
Ni2As2,P4/nmm,-0.43090667027385976,-0.10772666756846494
Ni2As6,I4/mmm,2.3617984725134136,0.2952248090641767
Ni2Br6,Pm-3n,4.139175421000573,0.5173969276250716
Ni2Ge,P-3m1,-0.6764810543938466,-0.22549368479794887
Ni2Ge2,Cmcm,-0.30504566146200673,-0.07626141536550168
Ni2Ge4,Cmcm,0.6142378190407776,0.1023729698401296
Ni2Ge4,Pnnm,-0.851269391279228,-0.14187823187987134
Ni2Ge6,Pmmn,0.6407365231309115,0.08009206539136393
Ni2Np2,Pmma,-0.5931196981268272,-0.1482799245317068
Ni2P,P-3m1,-1.1132294566126681,-0.37107648553755607
Ni2P2,Cmcm,-0.9777181413162026,-0.24442953532905065
Ni2P2,P4/nmm,-0.8323520934572759,-0.20808802336431897
Ni2P4,Cmcm,-0.06023671754294213,-0.010039452923823688
Ni2P4,I4/mcm,0.1431770206946652,0.0238628367824442
Ni2P6,I4/mmm,2.7306456268835078,0.34133070336043847
Ni2Pb2,P6_3/mmc,0.20320119152107452,0.05080029788026863
Ni2Pb2,P6_3mc,2.5030578223856477,0.6257644555964119
Ni2Pd,I4/mmm,0.09924025512268031,0.03308008504089344
Ni2Pd4,C2/m,0.3110613245864329,0.05184355409773881
Ni2Pt6,P6_3/mmc,-0.12375841344534422,-0.015469801680668027
Ni2Rh2,Cmme,0.8918593036253704,0.2229648259063426
Ni2Rh4,Cmmm,0.27746600235610686,0.04624433372601781
Ni2Rh4,Fd-3m,3.430680468753458,0.5717800781255763
Ni2Sb,I4/mmm,-0.26406125308924455,-0.08802041769641485
Ni2Sb,P4/mmm,0.3628663789895512,0.12095545966318373
Ni2Sb2,P4/nmm,-0.21563783631438463,-0.05390945907859616
Ni2Sb4,I4/mcm,0.14034578802173314,0.023390964670288856
Ni2Sb4,Pnnm,-2.322136798172034,-0.3870227996953389
Ni2Sn,I4/mmm,-0.35240084088798884,-0.11746694696266295
Ni2Sn2,P-3m1,0.48782484681768423,0.12195621170442106
Ni2Sn2,P4/nmm,-0.1546070696538031,-0.03865176741345078
Ni2Sn2,Pmmn,-0.46052745991214294,-0.11513186497803574
Ni2Sn4,I4_1/amd,1.3119318618097964,0.21865531030163274
Ni2Sr2,Fd-3m,1.8505738253305193,0.4626434563326298
Ni2Sr2,I4_1/amd,1.3694035818891201,0.34235089547228004
Ni2Sr2,Pmma,0.781358102843317,0.19533952571082924
Ni2Sr4,I4/mcm,1.2527703988342864,0.20879506647238108
Ni2Ta,Fm-3m,1.111264119541353,0.37042137318045104
Ni2Ta,I4/mmm,-1.0650088316204673,-0.35500294387348913
Ni2Ta4,Fd-3m,3.837044138750869,0.6395073564584782
Ni2Ta6,Pm-3n,-0.6643962239369614,-0.08304952799212018
Ni2V,Immm,-1.2435051401332018,-0.20725085668886697
Ni2V2,Pmma,-0.618646535780865,-0.15466163394521626
Ni2V4,Cmcm,-0.18536920905781074,-0.030894868176301788
Ni2Yb2,Pmma,-0.9664327987380403,-0.24160819968451008
Ni32P12,R-3c,-21.94496875450804,-0.4987492898751827
Ni3Np,Pm-3m,0.5605371455495742,0.14013428638739356
Ni3P,Immm,-1.2380208813030649,-0.3095052203257662
Ni3P,P4/mmm,-0.6805365658547835,-0.17013414146369588
Ni3P,Pmmm,-0.728025065766257,-0.18200626644156426
Ni3P2,P-3m1,-2.0181596907504726,-0.4036319381500945
Ni3Rh3,Cm,0.35405906630536066,0.059009844384226774
Ni3Sb,Fm-3m,-0.8920101654904649,-0.22300254137261621
Ni3Sb,I4/mmm,-0.5440357777375073,-0.13600894443437683
Ni3Sb,P4/mmm,0.15413712269306146,0.038534280673265364
Ni3Sm,Pm-3m,-1.3198836238726557,-0.3299709059681639
Ni3Sr,Cmmm,2.081331044098871,0.5203327610247177
Ni3V,I4/mmm,-1.0095054163458634,-0.25237635408646586
Ni3Yb,I4/mmm,-0.32179894908724904,-0.08044973727181226
Ni4Ge2,Pnnm,-1.053966033118094,-0.17566100551968233
Ni4Ge5,I4/mmm,1.4930718482445116,0.16589687202716796
Ni4P2,C2/m,-1.9750278284831282,-0.32917130474718803
Ni4Pd8,I4_1/amd,0.8227316268195324,0.0685609689016277
Ni4Rh8,Pnma,0.642934646010545,0.05357788716754541
Ni4Sb2,I4_1/amd,1.0844680720655386,0.18074467867758978
Ni4Sb3,I4/mmm,-0.64401581104282,-0.09200225872040287
Ni4Sr,I4/m,1.7650303774447025,0.3530060754889405
Ni4Ta,Im-3m,4.208915195947164,0.8417830391894328
Ni4Ta16,I-43m,11.018376691627509,0.5509188345813755
Ni4Ta4,P2_13,0.022226438081716537,0.002778304760214567
Ni4Ta6,R-3c,1.0174024974414664,0.10174024974414664
Ni5P,P4/mmm,-0.43694320754001126,-0.07282386792333521
Ni5Rh,Pmmm,0.1381796076543509,0.023029934609058483
Ni5Sb4,I4/mmm,-0.0900124093640784,-0.010001378818230933
Ni5Ta,F-43m,-1.449791894329934,-0.24163198238832231
Ni5U,F-43m,-2.0410436630464446,-0.3401739438410741
Ni6As4,Fdd2,-1.3817678443229866,-0.13817678443229867
Ni6Ge18,Pmmn,5.275840688310609,0.21982669534627539
Ni6P2,I4/mmm,-2.5002387556695496,-0.3125298444586937
Ni6P7,R-3m,2.7461102506569404,0.21123925005053387
Ni6Ta2,P6_3/mmc,-2.788958468115954,-0.34861980851449426
Ni8Ge4,Pnma,-5.345869049483554,-0.4454890874569628
Ni8Pt4,Pnma,-0.5426983625514765,-0.045224863545956374
Ni8Ta16,Fd-3m,-1.9370994604641112,-0.08071247751933797
NiAs,Fm-3m,-0.6025002258936674,-0.3012501129468337
NiAs3,Fm-3m,0.03115848057575832,0.00778962014393958
NiAs3,P4/mmm,0.570931028015508,0.142732757003877
NiBi3,Fm-3m,1.4863449941858011,0.3715862485464503
NiGe2,I4/mmm,0.013516413049082132,0.004505471016360711
NiGe2,P4/mmm,0.20359072715756543,0.06786357571918847
NiGe3,R-3m,0.9990268422190383,0.24975671055475956
NiGe4,I4/mmm,2.4027436828032904,0.4805487365606581
NiGe5,P4/mmm,0.9207561463261236,0.1534593577210206
NiP,P-6m2,-0.41909318115763305,-0.20954659057881653
NiP3,I4/mmm,1.5226320656188541,0.38065801640471353
NiP3,R-3m,1.6736336117027086,0.41840840292567716
NiP4,I4/mmm,1.1600240444488215,0.2320048088897643
NiPa,P-6m2,0.15819414927315734,0.07909707463657867
NiPb3,Pm-3m,1.350068401201197,0.33751710030029924
NiPd3,Pm-3m,0.026821759498037778,0.0067054398745094446
NiPt3,Pm-3m,-0.349513738820999,-0.08737843470524975
NiRh5,Pmmm,0.1449644312722782,0.0241607385453797
NiSb,R-3m,-0.29600424536587155,-0.14800212268293578
NiSb2,I4/mmm,-0.007735668400702167,-0.002578556133567389
NiSn,P-6m2,-0.2446140485907904,-0.1223070242953952
NiSn2,I4/mmm,-0.18217917816585505,-0.06072639272195168
NiSn2,P-3m1,-0.27308896810780325,-0.09102965603593442
NiSr,Pm-3m,0.2943493502104264,0.1471746751052132
NiTa,P-6m2,0.07195648928841791,0.035978244644208957
NiTa2,Fm-3m,0.9734862234811281,0.3244954078270427
NiTa4,Im-3m,3.8189111326124845,0.7637822265224969
NiTa7,Fm-3m,1.625338350840508,0.2031672938550635
NiV,P4/mmm,-0.3421074063221603,-0.17105370316108015
NiW,P-6m2,0.3060840431294345,0.15304202156471725
NpPa,P4/mmm,0.24139968828534641,0.12069984414267321
NpPa3,Pm-3m,-1.384256397544597,-0.34606409938614924
NpPb,F-43m,2.6023859844220905,1.3011929922110452
NpPd,P-6m2,0.12905160974865382,0.06452580487432691
NpPd,R-3m,0.1407902329767765,0.07039511648838825
NpRh,R-3m,-0.030485397638621237,-0.015242698819310618
NpSb,Fm-3m,-0.8994965042817071,-0.44974825214085357
NpSn,P4/mmm,-0.5093924930862492,-0.2546962465431246
NpTa,P4/mmm,0.8689542521715516,0.4344771260857758
NpU,P4/mmm,0.015426865803810585,0.007713432901905293
NpYb,P4/mmm,1.1091385523681367,0.5545692761840684
NpYb,R-3m,1.0073980506041664,0.5036990253020832
P12As17,I-43m,9.680120929475706,0.3337972734301968
P12Br12,Pbcm,0.3051188872211128,0.012713286967546367
P12Br17,I-43m,2.745974062445896,0.0946887607739964
P16As8,Fd-3m,6.33819788138301,0.26409157839095876
P16Br4,I23,8.541428307716728,0.4270714153858364
P17Br12,I-43m,2.7935935701609935,0.09633081276417219
P24As5,I-43m,7.066766567404301,0.2436816057725621
P2As4,Cmcm,1.8578313211235375,0.3096385535205896
P2As6,Cmcm,2.2257260355854243,0.27821575444817803
P2Br2,Pmmn,0.7722420008732289,0.19306050021830723
P2Br6,Pm-3n,5.159483351950776,0.644935418993847
P3As,Fm-3m,2.4148052489304668,0.6037013122326167
P3As,Pm-3m,2.9865709075886357,0.7466427268971589
P3Br,Cmmm,4.312236354527823,1.0780590886319557
P3Br,Im-3m,2.1594028368483045,0.5398507092120761
P3Br,Pm-3m,6.590223682065545,1.6475559205163863
P3Br,Pmmm,3.503473726352661,0.8758684315881653
P3Br,R-3m,1.0461601216928678,0.26154003042321694
P3Br2,R-3m,1.245168603462524,0.2490337206925048
P4As,Im-3m,4.060456674869055,0.812091334973811
P4As2,C2/m,0.3569017298773147,0.05948362164621912
P4As8,Pa-3,2.3531490222448994,0.19609575185374162
P4Br16,I-43m,0.9517192415350593,0.04758596207675296
P4Br2,Cmcm,1.102763020940511,0.18379383682341852
P4Br6,Fdd2,2.0693604926298796,0.20693604926298798
P4Br8,Pa-3,2.113473292046706,0.17612277433722548
P5As,F-43m,4.701616238771594,0.7836027064619324
P7As,Fm-3m,6.13217752563817,0.7665221907047712
P8Br16,Fd-3m,12.496641650328542,0.5206934020970226
PAs,Pm-3m,1.1093258270970616,0.5546629135485308
PAs3,Fm-3m,2.0327499157535307,0.5081874789383827
PAs3,Immm,1.60838922031245,0.4020973050781125
PAs3,Pm-3m,2.4949024334744507,0.6237256083686127
PAs4,Im-3m,2.389007029932621,0.4778014059865242
PAs5,F-43m,4.6196396014109915,0.7699399335684985
PBr,P-6m2,1.444595945675042,0.722297972837521
PBr3,Fm-3m,2.567156871196139,0.6417892177990348
PBr4,Im-3m,1.3745547145192951,0.27491094290385903
PI,R-3m,1.3550717313735603,0.6775358656867801
PI3,Pm-3m,3.278960526168607,0.8197401315421518
Pa3Bi,Pm-3m,-2.1992536610660807,-0.5498134152665202
PaGe,F-43m,0.20259457042872242,0.10129728521436121
PaGe3,Fm-3m,-1.391776796661702,-0.3479441991654255
PaP,Pm-3m,-2.6139768985330765,-1.3069884492665382
PaPb,P4/mmm,0.1013464282705776,0.0506732141352888
PaRh,P4/mmm,-1.2058704627126176,-0.6029352313563088
PaSb3,Pm-3m,-2.521779787344915,-0.6304449468362288
PaSn,P4/mmm,-1.1133433255683212,-0.5566716627841606
Pb16Sr4,I-43m,-1.6537943188669857,-0.08268971594334928
Pb16V8,Fd-3m,7.5715449625975,0.31548104010822914
Pb24Sr5,I-43m,-5.073961000724196,-0.1749641724387654
Pb24V5,I-43m,12.74630411097067,0.43952772796450584
Pb2As2,Imma,0.3361901209350222,0.08404753023375555
Pb2As4,Cmcm,0.21478629267487293,0.03579771544581215
Pb2As4,Pnnm,0.8186225236436826,0.1364370872739471
Pb2As6,Pmmn,0.5176361614405209,0.06470452018006512
Pb2Br2,P6_3/mmc,-1.7545586538566589,-0.4386396634641647