formula,space_group,formation_energy_value,formation_energy_value_per_atom
Pb2Br4,C2/m,-5.945558180758725,-0.9909263634597876
Pb2P,I4/mmm,0.3864968349955351,0.12883227833184505
Pb2P2,P4/nmm,1.0403280905108616,0.2600820226277154
Pb2P4,I4/mcm,0.691709742111204,0.11528495701853399
Pb2P6,Pmmn,0.4866253774809053,0.06082817218511316
Pb2Rh3,R-3m,1.473929767743682,0.2947859535487364
Pb2Sb,P-3m1,0.16577407792511778,0.05525802597503926
Pb2Sb2,Imma,0.2434724554725758,0.06086811386814395
Pb2Sr,P4/mmm,-0.2925413380125139,-0.09751377933750464
Pb2Sr2,Cmcm,-2.210999682376052,-0.552749920594013
Pb2Sr2,Pmma,-2.422752616481045,-0.6056881541202612
Pb2Sr4,Fd-3m,1.3884570104175822,0.2314095017362637
Pb2Ta,P-3m1,2.2397790458372064,0.7465930152790689
Pb2Ta2,P4/nmm,1.5225325952956368,0.3806331488239092
Pb2Ta2,R-3m,3.4236419751846903,0.8559104937961726
Pb2Ta4,I4/mcm,4.386417746302058,0.7310696243836764
Pb2V,Fm-3m,2.170122457433134,0.7233741524777114
Pb2V2,Imma,1.9714006382091256,0.4928501595522814
Pb2V2,P4/nmm,1.0635938403331657,0.26589846008329143
Pb2V4,Cmcm,2.7456139991273716,0.4576023331878953
Pb2V4,Fd-3m,2.520044318352433,0.42000738639207214
Pb2W2,R-3m,2.3283386909431876,0.5820846727357969
Pb3As,Fm-3m,0.6329345345142041,0.15823363362855103
Pb3As,I4/mmm,0.44653530444651146,0.11163382611162787
Pb3As,Immm,0.20335675875624126,0.050839189689060316
Pb3Sb,Pmmm,0.21108437152337522,0.052771092880843806
Pb3Ta,I4/mmm,2.823664677716202,0.7059161694290506
Pb3V,Immm,1.5259819665843963,0.3814954916460991
Pb3V,P4/mmm,1.7582763562493327,0.43956908906233316
Pb3V,Pm-3m,1.659185522878488,0.414796380719622
Pb3W2,P-3m1,4.548971320938584,0.9097942641877168
Pb4As16,I23,6.728075554777277,0.3364037777388639
Pb4As2,Pnnm,0.5315672271015082,0.08859453785025136
Pb4As3,I4/mmm,1.0013734717785319,0.14305335311121883
Pb4As4,Pnma,0.7696542623508122,0.09620678279385153
Pb4I8,R-3m,-8.046763077911436,-0.670563589825953
Pb4P,I4/mmm,2.2174433766645976,0.4434886753329195
Pb4P2,Cmcm,0.3588707697398483,0.059811794956641386
Pb4Sb2,I4/mcm,0.41525704945064135,0.06920950824177356
Pb4Ta2,I4/mcm,2.0921485048787147,0.34869141747978577
Pb4V,Im-3m,1.5782627734048518,0.3156525546809703
Pb4V4,P2_13,4.263719411230557,0.5329649264038196
Pb4V4,Pnma,3.517402699349077,0.4396753374186346
Pb5As,Cmmm,0.4418527661706939,0.07364212769511566
Pb5P,Amm2,0.8820487095343417,0.1470081182557236
Pb5Sb3,Cmmm,0.3543441587275211,0.04429301984094014
Pb5Sr24,I-43m,1.3618283761085976,0.04695959917615854
Pb5W,P-62m,3.94907106952968,0.65817851158828
Pb6As18,Pmmn,4.2079147872662475,0.17532978280276032
Pb6As2,Pm-3n,1.3608428585988754,0.17010535732485943
Pb6As2,Pmmn,2.31381336854464,0.28922667106808
Pb6Br2,P6_3/mmc,0.49225860552729017,0.06153232569091127
Pb6P2,I4/mmm,1.7300427607121378,0.21625534508901723
Pb6Sb18,Pmmn,2.880006318916216,0.12000026328817566
Pb7I14,P3m1,-14.185105680925275,-0.6754812229012036
Pb8As4,Pa-3,0.7017414010887109,0.05847845009072591
Pb8Sb4,Pnma,0.2848182806036519,0.02373485671697099
Pb8W4,P6_3/mmc,19.97683400315688,1.66473616692974
PbAs3,Cmmm,1.5014477119957803,0.3753619279989451
PbAs3,Fm-3m,1.5663547268517988,0.3915886817129497
PbAs3,Immm,1.0122506122521102,0.25306265306302755
PbAs3,P4/mmm,1.2370838201043703,0.3092709550260926
PbGe2,I4/mmm,0.775088104715759,0.25836270157191965
PbGe5,P4/mmm,1.7118807372915867,0.28531345621526444
PbI2,P-3m1,-2.1712701476975464,-0.7237567158991822
PbP3,I4/mmm,3.037761008626436,0.759440252156609
PbP3,P4/mmm,2.1687379310418535,0.5421844827604634
PbRh2,P-3m1,0.781116043805671,0.26037201460189036
PbRh3,P4/mmm,0.7429612429780299,0.18574031074450748
PbRh3,R-3m,1.5013809017412392,0.3753452254353098
PbSb,Cmmm,0.20781508939840165,0.10390754469920083
PbSb,P4/mmm,0.05343099228111159,0.026715496140555794
PbSb3,I4/mmm,0.8813955306626351,0.22034888266565877
PbSb3,Immm,0.50041085669171,0.1251027141729275
PbSm,R-3m,-1.3963592285838828,-0.6981796142919414
PbSn3,P4/mmm,0.024877746603838347,0.006219436650959587
PbSr3,I4/mmm,-0.9204830548478142,-0.23012076371195356
PbSr7,Fm-3m,-0.24799547453573645,-0.030999434316967056
PbTa3,I4/mmm,1.5464480262145415,0.38661200655363537
PbTa3,P4/mmm,0.9161330027216223,0.2290332506804056
PbV,F-43m,3.2070358293806294,1.6035179146903147
PbV3,Fm-3m,1.5475848056208292,0.3868962014052073
PbV4,Im-3m,8.682093465856525,1.736418693171305
PbYb,P4/mmm,-1.209395507453003,-0.6046977537265015
Pd12Sb4,Pnma,-5.926564076896071,-0.3704102548060044
Pd12Ta18,P4_2/mnm,-5.6465829967322065,-0.18821943322440687
Pd16Sb4,I-43m,-0.44231766773461345,-0.02211588338673067
Pd16Ta14,P4_2/mnm,-5.758821444146548,-0.19196071480488494
Pd18As6,Pmmn,-6.9928242269311625,-0.29136767612213177
Pd2As4,Cmcm,-0.7520479376352576,-0.1253413229392096
Pd2Ge4,Imma,1.2139967793373145,0.10116639827810954
Pd2P,I4/mmm,-1.3147879651887706,-0.2932460067671693
Pd2P2,Cmme,-0.2995592149598103,-0.07488980373995258
Pd2P2,P-3m1,-0.26818609750312916,-0.06704652437578229
Pd2P2,R-3m,-0.7976906023740966,-0.19942265059352415
Pd2Pt,P-3m1,0.1408527778958586,0.046950925965286196
Pd2Pt2,R-3m,-0.05341304086925547,-0.013353260217313867
Pd2Pt7,P-31m,-0.1554254640195012,-0.0172694960021668
Pd2Rb,I4/mmm,0.43334025667240894,0.1444467522241363
Pd2Rb2,P2_1/m,0.36745885018169844,0.09186471254542461
Pd2Rb2,P4/nmm,1.968633575583091,0.49215839389577276
Pd2Rb4,I4/mcm,0.873208306747653,0.1455347177912755
Pd2Rh2,Cmme,0.5705836356935379,0.14264590892338447
Pd2Rh2,P4/nmm,0.18020698805556012,0.04505174701389003
Pd2Sb,I4/mmm,-1.1712473971515571,-0.39041579905051904
Pd2Sb,P-3m1,-1.057466588432419,-0.3524888628108063
Pd2Sb2,P-3m1,-0.5942661882968494,-0.14856654707421235
Pd2Sb4,Cmcm,-1.363609766212715,-0.22726829436878582
Pd2Sn,Immm,-1.429887948909382,-0.4766293163031274
Pd2Sn2,Pmma,-1.6890860845204827,-0.4222715211301207
Pd2Sn8,Ccce,-2.912838041090353,-0.2912838041090353
Pd2Ta2,P4/nmm,-1.3154132356155053,-0.3288533089038763
Pd2V,Immm,-0.8330366172942227,-0.2776788724314076
Pd2V2,Cmcm,-0.31253325035156365,-0.07813331258789091
Pd2V2,Pmma,-0.6861542951822059,-0.17153857379555149
Pd2V4,Pnnm,2.5113579951839213,0.4185596658639869
Pd2W,I4/mmm,0.25120256676955677,0.08373418892318558
Pd2W,Immm,-0.22246931693517524,-0.07415643897839175
Pd2W2,Cmcm,0.6297733308894635,0.15744333272236588
Pd2W2,Cmme,-0.006154604051957335,-0.0015386510129893338
Pd2W4,I4/mcm,2.5383496280422833,0.42305827134038054
Pd3As,Immm,-1.1032135313725995,-0.27580338284314987
Pd3P,P4/mmm,-0.8980689245043294,-0.22451723112608235
Pd3Pt,R-3m,0.15578711246270416,0.03894677811567604
Pd3Pt2,R-3m,0.7628275954419443,0.15256551908838886
Pd3Pt9,C2/m,-0.2504931609756653,-0.020874430081305444
Pd3Rb,P4/mmm,0.8181141286590492,0.2045285321647623
Pd3Rh6,P-62m,4.7515065000786265,0.5279451666754029
Pd3Sb,Immm,-1.5031490058004184,-0.3757872514501046
Pd3Sb,Pmm2,-1.3159487377320858,-0.32898718443302144
Pd3Ta,I4/mmm,-1.915846288928627,-0.47896157223215674
Pd3Ta,P4/mmm,-1.0701847587006945,-0.26754618967517363
Pd3V,Immm,-0.9293057687432871,-0.23232644218582177
Pd3V,Pmmm,-0.8888754389481228,-0.2222188597370307
Pd4As2,Cmcm,-1.279709677575056,-0.21328494626250935
Pd4As2,Pnnm,-1.7654108373673978,-0.294235139561233
Pd4Ge2,Imma,-0.039499776608316495,-0.0032916480506930412
Pd4Pt4,Imma,-0.25652665550250475,-0.032065831937813094
Pd4Pt5,C2/m,-0.25193013399180586,-0.02799223711020065
Pd4Pt8,P2/m,-0.2569039451758641,-0.021408662097988678
Pd4Pt8,Pm,-0.28021952891754154,-0.023351627409795128
Pd4Rh,I4/m,0.24677268836512312,0.049354537673024626
Pd4Rh5,I4/mmm,0.8105138459062573,0.09005709398958414
Pd4Sb2,I4/mcm,-1.8532641269193917,-0.3088773544865653
Pd4Sn12,Cmce,-5.512330447936165,-0.3445206529960103
Pd4Sn4,Pnma,-3.1473431046220384,-0.3934178880777548
Pd4Ta2,I4/mcm,-0.03483107942108887,-0.005805179903514812
Pd4V4,Pnma,-0.758876614702217,-0.09485957683777713
Pd4W2,I4/mcm,1.922986430491889,0.32049773841531487
Pd5Pt7,P2/m,-0.24969332806979594,-0.020807777339149663
Pd5Rb,P4/mmm,0.9238039960357085,0.15396733267261808
Pd5Rb4,I4/mmm,2.3902144673960777,0.26557938526623087
Pd5Sn,P4/mmm,-1.3681955468786633,-0.2280325911464439
Pd5Sr,P6/mmm,-2.3271124344996394,-0.3878520724166066
Pd6Ge4,Fdd2,-3.925074452225566,-0.3925074452225566
Pd6I4,R-3c,-0.042875552108860404,-0.004287555210886041
Pd6P2,Cmcm,-0.4142877182139486,-0.051785964776743576
Pd6Pt4,P2/m,-0.26465234457786124,-0.026465234457786126
Pd6Pt6,Cc,-0.3453726431289823,-0.028781053594081858
Pd6Rh10,I4/mcm,5.199283187158329,0.32495519919739557
Pd6Sr2,Cmcm,-3.000185850887,-0.375023231360875
Pd6V18,Pmmn,0.22602358647407073,0.009417649436419614
Pd7Pt5,P2/m,-0.24057705108594973,-0.02004808759049581
Pd7Sb6,R-3m,-3.1379473456572953,-0.24138056505056119
Pd8Sb4,Cmc2_1,-5.618404830554489,-0.46820040254620743
Pd8Sn16,I4_1/acd,-13.432707985782002,-0.5596961660742501
Pd8V4,Pnma,-2.6856978867996304,-0.22380815723330252
PdAs,Cmmm,-0.27723378909282204,-0.13861689454641102
PdAs3,Imm2,0.3358580798204045,0.08396451995510112
PdAs3,Pmm2,-0.20095948021326393,-0.05023987005331598
PdBi,Pm-3m,-0.6031631530320638,-0.3015815765160319
PdBr,Fm-3m,-0.2140825573269618,-0.1070412786634809
PdGe2,Immm,-0.28823503932747485,-0.09607834644249162
PdP2,I4/mmm,0.4452921466736992,0.14843071555789975
PdP2,P-3m1,-0.7391554586578231,-0.246385152885941
PdP3,Cmmm,1.193342457400572,0.298335614350143
PdP8,I4/mmm,3.920789785241837,0.43564330947131524
PdPt3,Immm,0.262594142702838,0.0656485356757095
PdRb2,P4/mmm,0.47371799733151043,0.1579059991105035
PdRh2,I4/mmm,0.20219577744650685,0.06739859248216895
PdRh2,P4/mmm,2.418299146221152,0.8060997154070506
PdRh4,I4/m,0.297183883142921,0.059436776628584195
PdRh4,I4/mmm,2.007247087487805,0.401449417497561
PdSn2,I4/mmm,-0.9589887832754815,-0.31966292775849386
PdSn3,Cmmm,-1.0165205480772528,-0.2541301370193132
PdSr,R-3m,-0.7592391732170007,-0.37961958660850037
PdSr5,C2/m,-1.0863685715374576,-0.18106142858957627
PdTa,P4/mmm,-1.1797193734619569,-0.2949298433654892
PdTa2,I4/mmm,-0.1829960424112116,-0.060998680803737194
PdTa4,I4/mmm,3.912279115888289,0.7824558231776578
PdU,P-6m2,-0.4469387286753239,-0.22346936433766196
PdV3,Cmmm,-0.12960982365148155,-0.03240245591287039
PdW,P4/mmm,0.48146827688136185,0.24073413844068092
PdW2,Fmmm,0.22853227377919438,0.0761774245930648
PdW3,Cmmm,0.30795646039272384,0.07698911509818096
PdYb,P-6m2,-1.3034157820307009,-0.6517078910153504
Pt10Sn6,I4/mcm,-4.1307125654075065,-0.25816953533796916
Pt16Rb8,Fd-3m,8.894921524518736,0.37062173018828065
Pt24Ge16,Pnma,-23.221699641922612,-0.5805424910480653
Pt24W5,I-43m,0.9419070098152531,0.03247955206259494
Pt2As,I4/mmm,-0.11180874861906176,-0.03726958287302058
Pt2As,P4/mmm,-0.3433533293124533,-0.11445110977081778
Pt2As2,P4/nmm,-0.439436121104567,-0.10985903027614174
Pt2As4,Pnnm,-2.946533361185388,-0.49108889353089796
Pt2Br4,Cmcm,-1.0741638116482655,-0.1790273019413776
Pt2P2,Imma,0.06178531433815593,0.015446328584538982
Pt2P4,C2/m,1.3155483462417905,0.21925805770696508
Pt2Rh,Fm-3m,1.4687816178480873,0.4895938726160291
Pt2Rh,P-3m1,0.5176764246071635,0.1725588082023878
Pt2Rh2,I4_1/amd,-0.08235614720858209,-0.02058903680214552
Pt2Rh2,P-3m1,0.21218352797066586,0.053045881992666466
Pt2Sb,I4/mmm,-1.1013216275767235,-0.18355360459612058
Pt2Sn2,I4_1/amd,-0.9098995624692989,-0.22747489061732473
Pt2Sn2,P4/nmm,-0.15923525365471747,-0.03980881341367937
Pt2Th2,Cmcm,-4.940262015465223,-1.2350655038663056
Pt2V,Immm,-3.2999856297668657,-0.5499976049611442
Pt2V2,Cmcm,-1.675187354736,-0.418796838684
Pt2V2,Imma,-1.7663469309900037,-0.44158673274750093
Pt2V2,P4/nmm,-1.6087884192089419,-0.40219710480223547
Pt2V4,Cmcm,-1.6378304583292085,-0.2729717430548681
Pt2W2,Fd-3m,0.7334227627884147,0.0916709181370686
Pt3As,P4/mmm,-0.018768141090959034,-0.0046920352727397585
Pt3Bi,I4/mmm,-0.1155259509724047,-0.028881487743101175
Pt3Rh,P4/mmm,-0.03480313722347361,-0.008700784305868403
Pt3Sb,P4/mmm,-0.4877210786564419,-0.12193026966411047
Pt3V,I4/mmm,-1.8421198404351102,-0.46052996010877756
Pt3V,P4/mmm,-1.7069935029166778,-0.42674837572916946
Pt3V,Pm-3m,-1.7804713818604974,-0.44511784546512434
Pt3V,Pmmm,-1.6829511220133107,-0.42073778050332766
Pt4As8,Pa-3,-10.1777156846845,-0.8481429737237084
Pt4Rb16,I-43m,3.8373278110613356,0.19186639055306678
Pt4Rh8,Pa-3,9.198704276654482,0.7665586897212068
Pt4Sr2,Cmcm,-2.480374968407382,-0.41339582806789704
Pt4V12,Pnma,-2.6272371689368583,-0.16420232305855365
Pt4V2,Cmcm,-1.8764468302101847,-0.3127411383683641
Pt4V8,Pnma,-3.267597802504511,-0.2722998168753759
Pt5V,F-43m,0.5297483240470484,0.08829138734117474
Pt6As2,Cmcm,-0.5882497751134323,-0.07353122188917904
Pt6As2,I4/mmm,-0.3761056102386249,-0.04701320127982811
Pt6Br4,R-3c,4.733610672594047,0.4733610672594047
Pt6Sn2,I4/mmm,-2.5982802215089436,-0.32478502768861794
Pt6V2,Pm-3n,-2.020693545034959,-0.2525866931293699
Pt7Sb,Fm-3m,-1.1862262452193342,-0.14827828065241677
Pt8Sn4,I4_1/amd,-4.055386851133733,-0.3379489042611444
Pt8Sr16,Fd-3m,-13.037485822050229,-0.5432285759187595
Pt8V,I4/mmm,-2.474682410694797,-0.2749647122994219
PtAs3,P4/mmm,0.8044069906096851,0.20110174765242128
PtAs3,Pmmm,0.7350978995358446,0.18377447488396115
PtBi,Fm-3m,-0.3349238963480303,-0.16746194817401516
PtBi3,Pm-3m,0.4772299185397486,0.11930747963493715
PtBr5,Amm2,-0.5231014112756185,-0.08718356854593641
PtGe,Fm-3m,-0.7875825632717408,-0.3937912816358704
PtGe3,Cmmm,0.40783224549904773,0.10195806137476193
PtP3,Pmmm,1.5969731524529003,0.39924328811322507
PtRb3,Pm-3m,0.3681465692699497,0.09203664231748743
PtRb5,F-43m,2.7018579127655826,0.4503096521275971
PtRh,R-3m,0.022880679536998016,0.011440339768499008
PtRh3,P4/mmm,-0.027001073600860792,-0.006750268400215198
PtRh3,R-3m,0.7593099321154378,0.18982748302885946
PtRh7,Fm-3m,0.025427349829456602,0.0031784187286820753
PtSb,P4/mmm,-0.1854557758661901,-0.09272788793309505
PtSb3,P4/mmm,0.2833429579046876,0.0708357394761719
PtSm,F-43m,-1.595761881354603,-0.7978809406773015
PtSm,Pm-3m,-2.721222187408374,-1.360611093704187
PtSr,Fm-3m,-4.909437701171225,-0.6136797126464031
PtTh,P-6m2,-1.7368335598000488,-0.8684167799000244
PtTh,R-3m,-1.9970814279713114,-0.9985407139856557
PtV,F-43m,1.2139153729348022,0.6069576864674011
PtV3,Cmmm,-0.8791258221528793,-0.21978145553821982
PtV3,I4/mmm,-0.9731530472772221,-0.24328826181930552
PtV3,Immm,-1.2208917416175282,-0.30522293540438206
PtV3,P4/mmm,-1.1601385434540248,-0.2900346358635062
PtV3,Pm-3m,-0.9399012720664643,-0.23497531801661609
PtV5,F-43m,-0.48554090718867116,-0.0809234845314452
PtW,Pm-3m,0.6972450174537279,0.34862250872686396
PtW2,Fmmm,-0.1895915011358369,-0.06319716704527896
PtYb,Fm-3m,-1.8179870274193783,-0.9089935137096892
PtYb,R-3m,-1.762783570736146,-0.881391785368073
Rb2Sb4,C2/m,-2.9502084702281515,-0.4917014117046919
RbBi,F-43m,1.2813305600554519,0.6406652800277259
RbRh,P-6m2,2.1039413123683577,1.0519706561841788
RbSm,F-43m,3.021324571754447,1.5106622858772234
RbSn,P-6m2,0.07986089095978155,0.039930445479890775
RbSr,P-6m2,0.24048712401330263,0.12024356200665132
RbTa,Fm-3m,6.3035012225339235,3.1517506112669618
RbTa,P-6m2,3.117401899783511,1.5587009498917554
RbTh,P-6m2,1.4511712428139854,0.7255856214069927
RbU,Fm-3m,4.752569016144186,2.376284508072093
RbU,P-6m2,2.353484306114556,1.176742153057278
RbW,F-43m,6.94663655432815,3.473318277164075
RbW,P4/mmm,4.374840485764908,2.187420242882454
Rh2As,Fm-3m,-1.4140805306755873,-0.47136017689186244
Rh2As6,Pm-3n,1.8998188283887885,0.23747735354859856
Rh2Ge2,P-3m1,-0.2066331814428075,-0.05165829536070188
Rh2Sb2,Cmme,-0.7205609512229323,-0.18014023780573307
Rh2Sb4,Fd-3m,5.354874264203097,0.8924790440338496
Rh2Sn,P-3m1,-0.5616386321801237,-0.18721287739337455
Rh2Sn2,R-3m,-0.09081516249961652,-0.02270379062490413
Rh2Sr2,P4/nmm,0.20796508619546117,0.05199127154886529
Rh2W2,Pmma,-0.6536243867453564,-0.1634060966863391
Rh2W2,Pmmn,-0.19540225814465373,-0.04885056453616343
Rh3As,Cmmm,0.7598187938034435,0.18995469845086088
Rh3As,Pmmm,-0.057430661850151665,-0.014357665462537916
Rh3Ge,Fm-3m,-0.7953256622568539,-0.19883141556421347
Rh3Ge2,R-3m,-1.2917786067813282,-0.2583557213562656
Rh3P,P2/m,-0.9151121849355697,-0.22877804623389242
Rh3P,Pm-3m,-0.7680005822909344,-0.1920001455727336
Rh3Sb,Imm2,-0.30757644050462574,-0.07689411012615643
Rh3Sb,Immm,-0.8254249786483072,-0.2063562446620768
Rh3Sb,P4/mmm,0.15289988538588872,0.03822497134647218
Rh3Sb,Pmmm,-0.17083695611419003,-0.04270923902854751
Rh3Sb3,Cm,-0.6279646186365042,-0.1046607697727507
Rh3Sn2,R-3m,-0.6677664490009683,-0.13355328980019365
Rh3Sr,P4/mmm,0.8203475593155929,0.20508688982889822
Rh3Sr3,Cm,0.25273697744904666,0.04212282957484111
Rh3Ta,I4/mmm,-1.9342960499793875,-0.4835740124948469
Rh3Ta,Imm2,-1.4634203861938744,-0.3658550965484686
Rh3Ta,Pmm2,-1.6207074966295494,-0.40517687415738735
Rh4As12,Im-3,-7.01077181848693,-0.4381732386554331
Rh4Ge2,Cmcm,-1.2747777746870277,-0.21246296244783797
Rh4Sm2,Fd-3m,-5.4883243132168715,-0.9147207188694786
Rh4Sr2,Cmcm,0.9437525349634903,0.1572920891605817
Rh4W2,I4/mcm,1.0464158293039532,0.17440263821732552
Rh4W2,I4_1/amd,-0.2113019586363265,-0.03521699310605442
Rh5As,F-43m,2.820700039551099,0.47011667325851647
Rh5W3,Cmmm,-1.365115914669424,-0.170639489333678
Rh6P4,Fdd2,-4.949304186620736,-0.49493041866207366
Rh6Sb2,Cmcm,-0.8457468369371881,-0.10571835461714851
Rh6Sb4,Fdd2,-0.47986295062443673,-0.047986295062443673
Rh6W2,P6_3/mmc,-2.3449604782261133,-0.29312005977826416
Rh6W4,Fdd2,-0.5784129864622258,-0.05784129864622258
RhBi,P-6m2,0.13685331834333425,0.06842665917166713
RhBr,P-6m2,0.9009734304401116,0.4504867152200558
RhBr,R-3m,0.7024713284965944,0.3512356642482972
RhGe3,Imm2,-0.3620642359019932,-0.0905160589754983
RhGe3,R-3m,0.47271298828879793,0.11817824707219948
RhSb,F-43m,-0.2748532868692841,-0.13742664343464206
RhSb,Pm-3m,-0.35123575425537545,-0.17561787712768773
RhSn3,R-3m,-0.6270649028749737,-0.15676622571874343
RhSr,F-43m,1.6589472641397327,0.8294736320698664
RhSr2,I4/mmm,-0.4386547046471341,-0.14621823488237803
RhSr8,I4/mmm,0.5420844842707062,0.0602316093634118
RhTa,F-43m,1.3706791122079913,0.6853395561039957
RhTh,P4/mmm,-1.2001977440603486,-0.6000988720301743
RhU,F-43m,0.9025570574904087,0.45127852874520435
RhU,P-6m2,-0.38809778090794467,-0.19404889045397233
RhU,P4/mmm,-0.7095450073326415,-0.35477250366632074
RhV,F-43m,1.3788087715955948,0.6894043857977974
RhV,P-6m2,-0.47985512000857966,-0.23992756000428983
RhW3,Imm2,0.5039964086909166,0.12599910217272914
RhW4,I4/mmm,5.715352535370933,1.1430705070741864
RhYb,P-6m2,-0.6696848798831745,-0.33484243994158724
RhYb,Pm-3m,-1.0613986276824177,-0.5306993138412088
Sb2As4,Pnnm,0.6931986692134693,0.11553311153557821
Sb2Br,I4/mmm,0.11790318293874691,0.0393010609795823
Sb2Ge2,Imma,1.1160517960861611,0.2790129490215403
Sb2Ge2,P4/nmm,1.1681062801066062,0.29202657002665156
Sb3Ge,Cmmm,1.0699396894263025,0.2674849223565756
Sb3Ge,Immm,0.9882455542841457,0.24706138857103643
Sb3Ge,P4/mmm,1.0708019872449537,0.2677004968112384
Sb3Ge,Pmmm,1.0580924676570405,0.2645231169142601
Sb3Ge5,Cmmm,2.2388173402002565,0.27985216752503206
Sb4Br12,Pnma,-9.85189945964349,-0.6157437162277182
Sb4Ge2,Cmcm,1.2882371449164307,0.21470619081940512
Sb4Ge2,I4/mcm,1.6404029956560713,0.2734004992760119
Sb5Ge,Amm2,1.0583820304307956,0.17639700507179926
Sb5Ge,Cmmm,1.8960655031944285,0.31601091719907143
Sb6Ge2,Cmcm,1.7212926725285875,0.21516158406607344
Sb6Ge2,Pmmn,1.5246102987044239,0.19057628733805299
Sb8P4,Pa-3,2.788289605510748,0.23235746712589567
SbGe,Cmmm,0.6273779224935776,0.3136889612467888
SbGe,Pm-3m,-0.026726222866551907,-0.013363111433275954
SbGe2,I4/mmm,0.8698092944195599,0.28993643147318665
SbGe3,Cmmm,1.2447313265712445,0.31118283164281113
SbGe3,Imm2,1.2836092842742808,0.3209023210685702
SbGe3,Immm,1.2537440154080137,0.31343600385200343
SbI,Fm-3m,0.34833255592243706,0.17416627796121853
SbP,Fm-3m,0.12214590912388434,0.020491708522397012
SbP,Pm-3m,0.6175094063470503,0.30875470317352516
SbP2,I4/mmm,0.24842325317999325,0.08280775105999776
SbP3,Cmmm,2.081411792949666,0.5203529482374165
SbP3,Im-3m,0.8338814862421167,0.20847037156052917
SbP3,Imm2,1.1151320862521246,0.27878302156303114
Sm3W,I4/mmm,0.24875925460608883,0.06218981365152221
Sm4Sb8,Cmce,-14.413474558520235,-1.2011228798766862
SmBi,P-6m2,-1.9500938841260753,-0.9750469420630377
SmI3,Pm-3m,-3.5277965334778685,-0.8819491333694671