formula,space_group,formation_energy_value,formation_energy_value_per_atom
CaU,Pm-3m,2.0377713506831423,1.0188856753415712
CaV,P-6m2,2.14636064859641,1.073180324298205
CaW,Pm-3m,3.4288773069370198,1.7144386534685099
CaW2,I4/mmm,2.8941007724274748,0.6425096034148006
CaW3,Fm-3m,3.511646576637176,0.877911644159294
CaW3,P4/mmm,3.3768856478576743,0.8442214119644186
CaW3,Pm-3m,4.789764499022667,1.1974411247556667
CaW3,R-3m,3.0818476934893866,0.7704619233723466
CaW4,Im-3m,14.155622292093405,2.8311244584186808
Ce12Ga8,P4_2/mnm,-8.945157225494128,-0.4472578612747064
Ce2Br6,P6_3/m,-16.92388553255544,-2.11548569156943
Ce4Cu4,Pnma,-1.1981132901206308,-0.14976416126507885
Ce4Fe34,P6_3/mmc,0.6869908809786125,0.018078707394174012
Ce4Ge4,Pnma,-7.9214115426984435,-0.9901764428373054
Ce4Sb8,Cmce,-12.11252173477478,-1.0093768112312318
CeAs,Fm-3m,-3.4749932438981244,-1.7374966219490622
CeBi,P-6m2,-1.1111075222251685,-0.5555537611125843
CeCu5,P6/mmm,-0.9017681429432614,-0.15029469049054356
CeGa2,P6/mmm,-2.160606409007757,-0.720202136335919
CeGa3,Fm-3m,-1.1932778348180886,-0.29831945870452214
CeIn,P-6m2,-0.5404513958303312,-0.2702256979151656
CeNi3,Pm-3m,-0.03475648355421512,-0.00868912088855378
CePt,P-6m2,-1.313146117309472,-0.656573058654736
CeSb,P-6m2,-2.0665270497831223,-1.0332635248915611
CeSm,Fm-3m,0.5428705494270876,0.2714352747135438
CeU,Fm-3m,2.3016157417164553,1.1508078708582277
CeU3,I4/mmm,1.7734655983643322,0.44336639959108304
CeV,Pm-3m,1.2422295598104007,0.6211147799052004
Cr10Nb6,I4/mcm,6.339288657171124,0.3962055410731953
Cr12P17,I-43m,-2.408468435548002,-0.0830506357085518
Cr12Ta12,Pbcm,5.560867765335871,0.2317028235556613
Cr12Ta4,Pnma,4.373179015092319,0.27332368844326993
Cr12W18,P4_2/mnm,10.602403625863104,0.3534134541954368
Cr14Ta2,R-3m,0.9961938594084927,0.062262116213030794
Cr16Nb4,I23,11.032055562453678,0.5516027781226839
Cr18Ta6,Pmmn,7.147888542546809,0.2978286892727837
Cr24P5,I-43m,4.2477833903822955,0.14647528932352744
Cr26Nb2,Fm-3c,10.530867259616798,0.37610240212917134
Cr2As,Fmmm,3.61121577263064,1.20373859087688
Cr2As,P-3m1,0.7251361960602445,0.24171206535341483
Cr2As2,P4/nmm,0.19362721103940927,0.04840680275985232
Cr2As2,R-3m,1.5984963397496958,0.18389268376427603
Cr2As4,C2/m,-2.772573639469563,-0.4620956065782605
Cr2As4,I4_1/amd,0.5707121357999085,0.09511868929998475
Cr2Bi2,P6_3mc,3.1406036745742476,0.7851509186435619
Cr2K3,R-3m,5.481180808055722,1.0962361616111445
Cr2Na,Immm,3.019359728888663,1.0064532429628876
Cr2Na6,Cmcm,4.812678601188317,0.6015848251485396
Cr2Nb2,Fd-3m,0.5377221711801994,0.13443054279504985
Cr2Nb4,Fd-3m,4.457320202692095,0.7428867004486825
Cr2Nb4,Pnnm,4.146415530426168,0.691069255071028
Cr2Rh,P-3m1,0.27234123929986254,0.09078041309995417
Cr2Rh2,I4_1/amd,0.08810914967507699,0.022027287418769248
Cr2Rh2,P-3m1,0.2010416316743715,0.050260407918592875
Cr2Rh2,P4/nmm,0.0778301412438438,0.01945753531096095
Cr2Rh2,R-3m,7.016087989097146,0.7002478538314099
Cr2Rh3,P-3m1,1.2491326127269247,0.24982652254538493
Cr2Sb2,P6_3/mmc,-0.22523778467173017,-0.05630944616793254
Cr2Sn2,P4/nmm,1.7966615885334594,0.44916539713336484
Cr2Sr2,P-3m1,4.220070053262816,1.055017513315704
Cr2Sr2,P4/nmm,2.9785927226143087,0.7446481806535772
Cr2Ta2,Imma,0.05326070888853707,0.013315177222134267
Cr2Ta2,P4/nmm,0.24296594896980395,0.06074148724245099
Cr2Ta4,Pnnm,3.84983970010585,0.6416399500176416
Cr2Ta6,Cmcm,0.4895386716078747,0.061192333950984334
Cr2W2,P-3m1,1.9704720751787974,0.49261801879469935
Cr2W2,P4/nmm,0.34564085422343993,0.08641021355585998
Cr3Br2,R-3m,6.807631171727635,0.6807631171727635
Cr3Cu2,R-3m,3.1253153721682736,0.6250630744336547
Cr3K,R-3m,7.649404346141207,1.9123510865353017
Cr3Nb,Fm-3m,0.3125605624996268,0.0781401406249067
Cr3Nb,Immm,0.3876911914301786,0.09692279785754465
Cr3Nb,Pm-3m,11.368214005897304,2.842053501474326
Cr3P,Fm-3m,-0.5786973363260088,-0.1446743340815022
Cr3Rh,P4/mmm,0.38479965401436544,0.09619991350359136
Cr3Rh,Pm-3m,0.5880318779760927,0.14700796949402317
Cr3Sn,I4/mmm,0.9546759540768264,0.2386689885192066
Cr3Sn,P4/mmm,1.7547409781962386,0.43868524454905966
Cr3Sr,P4/mmm,4.49684081343899,1.1242102033597474
Cr3W,P4/mmm,0.2679503439614038,0.06698758599035096
Cr4As,I4/m,0.07203297030355316,0.014406594060710631
Cr4Nb16,I-43m,14.602370128255245,0.7301185064127622
Cr4Nb2,Fd-3m,-0.28345289321764255,-0.04724214886960709
Cr4Nb2,I4_1/amd,5.783106944170939,0.48192557868091157
Cr4Nb2,Pnnm,1.6602316551554779,0.2767052758592463
Cr4Nb4,P2_13,3.1726976937289564,0.39658721171611955
Cr4P,Im-3m,3.6144573200743153,0.722891464014863
Cr4P8,Pa-3,2.0673002005904664,0.1722750167158722
Cr4Rh,I4/mmm,3.2061880477036517,0.6412376095407304
Cr4Rh8,I4_1/amd,-1.0309332566188587,-0.08591110471823823
Cr4Sn8,Fddd,-0.3147477145164288,-0.0262289762097024
Cr4Sr5,I4/mmm,7.575644275003324,0.8417382527781471
Cr4Ta6,Fddd,2.2397428929938314,0.22397428929938315
Cr5Na,Amm2,4.166643761351388,0.694440626891898
Cr5Nb,Cmmm,0.4903067520164406,0.0817177920027401
Cr5Nb,F-43m,0.8814677563430919,0.14691129272384865
Cr5Nb24,I-43m,12.419003979222282,0.4282415165249063
Cr5P24,I-43m,13.220531808389438,0.4558804071858427
Cr5Rh,P4/mmm,0.3826221327550243,0.06377035545917072
Cr5Rh4,I4/mmm,0.3904125604624724,0.04337917338471915
Cr5Sr4,I4/mmm,7.760007994980683,0.8622231105534092
Cr6Ge2,Pm-3n,-1.7795817036531218,-0.22244771295664023
Cr6Pb18,Pmmn,20.634504348111818,0.8597710145046591
Cr6Pt2,Pm-3n,-0.20800573939277456,-0.02600071742409682
Cr6Sr2,I4/mmm,11.572882912852364,1.4466103641065455
Cr6Ta18,Pmmn,6.564138491331079,0.2735057704721283
Cr6Ta2,Cmcm,0.42080749598635236,0.052600936998294046
Cr6Ta2,Pmmn,2.6189219649563995,0.32736524561954994
Cr7Nb,Fm-3m,3.908615472747293,0.48857693409341163
Cr8Nb,I4/mmm,2.481225305285321,0.2756917005872579
Cr8P4,Pa-3,1.1420394699843968,0.09516995583203307
Cr8Pb4,Pnma,8.322226322753139,0.6935188602294282
Cr8Rh,I4/mmm,2.778489364734,0.308721040526
Cr8Rh4,I4_1/amd,1.0821552301633943,0.09017960251361619
Cr8Sn,I4/mmm,3.311561090162428,0.36795123224026977
Cr8Ta4,Pnma,1.863230170736344,0.15526918089469532
Cr9Ga12,C2/m,-1.077123054389034,-0.05129157401852543
CrAs2,P-3m1,1.3493762617652916,0.4497920872550972
CrAs3,I4/mmm,2.409960900428482,0.6024902251071205
CrAs3,R-3m,1.3217179964771137,0.33042949911927844
CrCu,Fm-3m,1.99867624340156,0.99933812170078
CrEu,Fm-3m,1.9008353283352388,0.9504176641676194
CrGa,Fm-3m,1.1133601893946405,0.5566800946973203
CrI2,C2/m,-1.2277105779105248,-0.4092368593035083
CrIr,Fm-3m,1.43033171381094,0.71516585690547
CrMo,Fm-3m,2.063776803479673,1.0318884017398364
CrNa,Cmmm,1.976809028572304,0.988404514286152
CrNa3,Cmmm,3.40607747375849,0.8515193684396225
CrNa3,Immm,2.169274690757339,0.5423186726893348
CrNb,Fm-3m,1.9072373718480016,0.9536186859240008
CrNb,Pm-3m,0.192667328045804,0.048166832011451
CrNb2,Fm-3m,7.206576108250886,0.6005480090209071
CrNb2,Fmmm,0.30680724000796644,0.10226908000265549
CrNb3,Cmmm,0.28960701723183746,0.07240175430795937
CrNb3,I4/mmm,1.034675725959417,0.25866893148985426
CrNb3,Immm,0.2892321977527459,0.07230804943818647
CrNb3,Pm-3m,7.001206316172073,1.7503015790430183
CrNb4,I4/m,0.3253661096399938,0.06507322192799876
CrNb5,F-43m,2.728375863369436,0.4547293105615727
CrNi,R-3m,0.2676141475199749,0.13380707375998746
CrP,Fm-3m,-0.43091026055623693,-0.21545513027811847
CrP3,Pm-3m,1.8765329094802112,0.4691332273700528
CrP7,Fm-3m,5.208190550211363,0.6510238187764203
CrPd,Fm-3m,1.5572411250783489,0.7786205625391744
CrPt3,P4/mmm,-0.1807263038991067,-0.04518157597477668
CrRh2,I4/mmm,-0.13936870117506572,-0.04645623372502191
CrRh2,P4/mmm,1.4105587386910337,0.47018624623034455
CrRh3,I4/mmm,-0.2799655189399779,-0.06999137973499447
CrRh4,I4/mmm,2.2336815662780225,0.4467363132556045
CrRh8,I4/mmm,4.015341071582952,0.44614900795366136
CrSb,F-43m,0.901409024699058,0.450704512349529
CrSb3,Pm-3m,0.8227698898288729,0.20569247245721822
CrSm,Fm-3m,1.1053685391946182,0.5526842695973091
CrSn,Pm-3m,0.5753146877848963,0.2876573438924481
CrSn2,I4/mmm,0.7853214845583594,0.2617738281861198
CrSn4,I4/m,2.1535269922204314,0.4307053984440863
CrSr2,I4/mmm,1.590079002736597,0.5300263342455322
CrSr2,P-3m1,2.056018908330862,0.6853396361102873
CrSr3,P4/mmm,1.6021698536669904,0.4005424634167476
CrTa,Cmmm,0.5463507298056136,0.1365876824514034
CrTa,F-43m,5.098792687038771,2.5493963435193856
CrTa,P-6m2,1.060332973870068,0.530166486935034
CrTa2,I4/mmm,-0.0775935826387979,-0.012932263773132982
CrTa3,Immm,0.11524956423494004,0.02881239105873501
CrTh,F-43m,3.401509684507544,1.700754842253772
CrTh,Fm-3m,1.6467438043527949,0.8233719021763974
CrTh,P-6m2,1.4349355758989706,0.7174677879494853
CrU,Fm-3m,1.2122314329950221,0.6061157164975111
CrU,R-3m,0.9134480740553208,0.4567240370276604
CrW3,P4/mmm,0.19763787730665427,0.04940946932666357
CrYb,F-43m,3.127124784476302,1.563562392238151
Cs16Bi16,P2_1/c,-158.54797436105866,-4.954624198783083
Cs2Fe2,P6_3/mmc,6.549773691557419,1.6374434228893548
Cs2Ni6,P6_3/mmc,4.963310658212322,0.6204138322765402
Cs3Fe,Fm-3m,3.1739715689176524,0.7934928922294131
Cs3Sm,Pm-3m,-5.187358855991179,-1.2968397139977947
Cs8Sb8,P2_12_12_1,-9.721773655410786,-0.6076108534631741
CsBr,F-43m,-3.7005606244921587,-1.8502803122460794
CsBr,Fm-3m,-3.906402673713403,-1.9532013368567016
CsBr,Pm-3m,-3.781014252069939,-1.8905071260349695
CsCu,Fm-3m,0.9375468518942369,0.46877342594711846
CsCu,Pm-3m,0.8799378860206968,0.4399689430103484
CsI,P-6m2,-3.238724316640754,-1.619362158320377
CsIr,P-6m2,3.1166390097831593,1.5583195048915797
CsIr,R-3m,3.1096409743963758,1.5548204871981879
CsMn,Fm-3m,2.755527430875418,1.377763715437709
CsNi,Amm2,2.4008114541692436,1.2004057270846218
CsP,P-6m2,1.2073264547245781,0.6036632273622891
CsSb,P-6m2,-0.2562970974480576,-0.1281485487240288
CsSm,P-6m2,0.6478854487183501,0.32394272435917504
CsSr,P4/mmm,0.379204953998161,0.1896024769990805
CsV,P-6m2,-0.2234731858882224,-0.1117365929441112
CsW,P-6m2,4.771140819293413,2.3855704096467063
CsYb,F-43m,1.366158993372932,0.683079496686466
CsYb,P-6m2,0.4266141626734794,0.2133070813367397
CsYb,R-3m,0.4234104807078758,0.2117052403539379
Cu12Ge12,Pbcm,3.838550667237456,0.159939611134894
Cu12Ni17,I-43m,3.4591383069270876,0.11928063127334784
Cu12Pb12,Pbcm,6.207926565705975,0.25866360690441564
Cu16In4,I-43m,3.136930615692748,0.1568465307846374
Cu16Ir8,Fd-3m,10.12784007202957,0.4219933363345654
Cu16Mn8,Fd-3m,8.11767159684726,0.33823631653530245
Cu16Ni4,I-43m,7.286287437447811,0.3643143718723906
Cu17In12,I-43m,7.291053312277924,0.25141563145785945
Cu17Nb12,I-43m,10.811490800309343,0.3728100275968739
Cu18As6,P-3c1,-1.6325558684892627,-0.06802316118705261
Cu24As8,I-43d,0.523872541924078,0.016371016935127436
Cu24In5,I-43m,1.4837469848555997,0.05116368913295172
Cu2Br2,Imma,0.018357833820806135,0.004589458455201534
Cu2Fe,Fmmm,0.3694996106849757,0.12316653689499191
Cu2Fe,I4/mmm,0.3097059979916814,0.1032353326638938
Cu2Fe2,Fd-3m,2.171779247737618,0.18098160397813481
Cu2Fe2,Imma,0.8083922190429433,0.20209805476073583
Cu2Ga2,Cmcm,0.026134965482540018,0.0065337413706350045
Cu2Ga2,I4_1/amd,-0.0599047864369755,-0.014976196609243875
Cu2Ga2,P4/nmm,-0.06597669398495398,-0.016494173496238496
Cu2Ga2,Pmma,-0.18460150367874917,-0.04615037591968729
Cu2Ge,I4/mmm,0.2960421783492553,0.09868072611641843
Cu2Ge2,Cmcm,0.4726834159629725,0.11817085399074312
Cu2Ge2,P4/nmm,0.6996899664125884,0.1749224916031471
Cu2Ge2,Pmmn,0.6949392961116097,0.1737348240279024
Cu2Ge4,Cmcm,1.5121704803281766,0.25202841338802945
Cu2Ge4,I4_1/amd,1.1607429809922891,0.19345716349871486
Cu2Ge4,Pnnm,1.1282148726970131,0.18803581211616888
Cu2Ge6,I4/mmm,2.3830939973799588,0.29788674967249484
Cu2I2,P6_3mc,-0.9767617710988752,-0.2441904427747188
Cu2In2,R-3m,0.8697950783014784,0.2174487695753696
Cu2In3,P-3m1,0.26105965201705317,0.052211930403410635
Cu2In6,Pm-3n,1.651117018300635,0.20638962728757937
Cu2Ir2,Fd-3m,1.0119315271564595,0.2529828817891149
Cu2K2,P-3m1,2.299284905899116,0.574821226474779
Cu2K2,Pmma,1.8984374997490008,0.4746093749372502
Cu2K2,R-3m,1.4614452058484035,0.3653613014621009
Cu2K3,P-3m1,-6.288315008157046,-2.0961050027190153
Cu2K3,R-3m,2.0645148615270177,0.4129029723054035
Cu2K4,Fd-3m,4.263905230845033,0.7106508718075055
Cu2Mn,I4/mmm,0.45681251049461125,0.15227083683153708
Cu2Mn,Immm,2.9715696057721424,0.4952616009620237
Cu2Mn2,Cmcm,1.1308483653351775,0.2827120913337944
Cu2Na,Immm,0.5688688108246893,0.1896229369415631
Cu2Ni2,Cmcm,0.32916478840135355,0.08229119710033839
Cu2Ni2,Pmmn,0.07856577910084184,0.01964144477521046
Cu2Ni26,Fm-3c,7.496709636892206,0.26773962988900735
Cu2P,P-3m1,0.33617561729432754,0.11205853909810917
Cu2Pb,I4/mmm,0.7795913238883454,0.2598637746294485
Cu2Pt6,I4/mmm,-0.9141370957460282,-0.11426713696825352
Cu2Rh6,Pmmn,0.5413460161911203,0.06766825202389004
Cu2Sb2,P4/nmm,0.37567571642801134,0.09391892910700284
Cu2Sb6,Cmcm,2.126075853222467,0.2657594816528084
Cu2Sn2,P-3m1,0.7749010350029586,0.19372525875073965
Cu2Sn2,P4/nmm,0.22860841976798163,0.05715210494199541
Cu2Sn2,R-3m,0.6889705366761056,0.1722426341690264
Cu2Ta2,P4/nmm,0.20412376408025779,0.051030941020064446
Cu2V,I4/mmm,0.2648493200697324,0.0882831066899108
Cu2W,Immm,3.679890353801067,0.6133150589668445
Cu2W2,Cmme,0.8762178934478939,0.21905447336197348
Cu3Br,I4/mmm,1.6735646837816116,0.4183911709454029
Cu3Br,Pmm2,0.7340844448288877,0.18352111120722192
Cu3Fe,P-6m2,0.3259237234956238,0.08148093087390595
Cu3Ga,Imm2,-0.3202292331310428,-0.0800573082827607
Cu3Ge,Cmmm,0.26102862957717576,0.06525715739429394
Cu3Ge4,I4/mmm,1.6079577338765745,0.2297082476966535
Cu3In,R-3m,0.9167072428848968,0.2291768107212242
Cu3In2,P-3m1,1.0306227121949263,0.20612454243898526
Cu3In2,R-3m,1.0963896496827914,0.21927792993655829
Cu3K,Pm-3m,3.058996636282151,0.7647491590705378
Cu3K,R-3m,2.8448823614606464,0.7112205903651616
Cu3Mo,Pmmm,0.9168260972326401,0.22920652430816002
Cu3Na,Pmmm,0.7918982118097802,0.19797455295244504
Cu3Na5,Cmmm,2.1888276585739455,0.2736034573217432
Cu3Nb,R-3m,1.0837946491016552,0.2709486622754138
Cu3Nb2,R-3m,1.6219802167274153,0.32439604334548305
Cu3P2,P-3m1,0.2875407697240355,0.05750815394480711
Cu3Rh,R-3m,0.10153412553273355,0.02538353138318339
Cu3Sb,Fm-3m,0.5168654708266551,0.12921636770666378
Cu3Sn,P4/mmm,0.2798772769998603,0.06996931924996508
Cu3Sn,R-3m,0.6820724041465578,0.17051810103663945
Cu3Sn6,P-31m,0.46272388265806086,0.05141376473978454
Cu3Ta,Immm,0.8013571757455331,0.20033929393638328
Cu3Ta,P4/mmm,0.3144953246662716,0.0786238311665679
Cu3W,Cmmm,0.7817369426385952,0.1954342356596488
Cu44Ni2,Fd-3m,5.4293376406550635,0.1180290791446753
Cu4As2,P4/nmm,-0.9153491710742365,-0.15255819517903943
Cu4Fe,I4/m,0.5623936715630364,0.11247873431260728
Cu4Fe8,Pa-3,11.148415539021173,0.9290346282517644
Cu4Ga5,I4/mmm,0.5890742224551921,0.06545269138391024
Cu4Ge2,I4_1/amd,1.6614443605332596,0.27690739342220994
Cu4Ge2,Pnnm,0.7513786449962279,0.12522977416603798
Cu4In16,I-43m,3.5735323338750433,0.17867661669375218
Cu4Ir,I4/mmm,2.2864499664470905,0.4572899932894181
Cu4K16,I-43m,7.768934117009081,0.38844670585045404
Cu4K2,Fd-3m,2.139216471715782,0.35653607861929704
Cu4K8,Pa-3,4.2652971203154095,0.3554414266929508
Cu4Mn,I4/m,0.18719990579846169,0.03743998115969234
Cu4Mn8,Pnma,4.335018775905908,0.3612515646588257
Cu4Nb2,Fd-3m,0.6382973912962164,0.1063828985493694
Cu4Nb4,P2_13,2.440838728931304,0.305104841116413
Cu4Ni2,Fd-3m,1.2849262878549759,0.21415438130916264
Cu4Pb,I4/m,0.9744973830075665,0.1948994766015133
Cu4Pd6,Fdd2,-0.4770990332457856,-0.04770990332457856
Cu4Pd8,I4_1/amd,-0.9771242296057849,-0.0814270191338154
Cu4Pt4,P-1,-0.9646468782776196,-0.12058085978470245
Cu4Pt7,P-1,-1.2550230660037585,-0.11409300600034168
Cu4Pt7,P1,-1.136254475001742,-0.10329586136379473
Cu4Sn5,I4/mmm,1.9361224236214127,0.2151247137357125
Cu4Ta4,P2_13,2.5166946849079253,0.31458683561349066
Cu4V,I4/mmm,0.2011951237463343,0.04023902474926686
Cu4V2,Cmcm,0.7862634786450258,0.1310439131075043
Cu4W8,Pa-3,15.192492650657954,1.2660410542214962
Cu5Br,Cmmm,1.4622622051043805,0.24371036751739675
Cu5Br3,Cmmm,1.9855478608705965,0.24819348260882457
Cu5Ge4,I4/mmm,1.2639493580455294,0.14043881756061438
Cu5Mn,Amm2,1.1405895787108804,0.19009826311848008
Cu5Mn,F-43m,0.7986857784020778,0.1331142964003463
Cu5P4,I4/mmm,1.2210561445476102,0.13567290494973447
Cu5Pb4,I4/mmm,2.0724395347927143,0.23027105942141268
Cu5Pt3,R-3m,-1.0668290047748172,-0.13335362559685215
Cu5Pt5,P-1,-1.2490049326850468,-0.12490049326850468
Cu5Pt5,P1,-1.138101380258533,-0.1138101380258533
Cu5Pt7,P1,-1.2667212160487082,-0.10556010133739235
Cu5V,F-43m,1.179736124779435,0.19662268746323916
Cu5W,Cmmm,1.8607619466135965,0.3101269911022661
Cu5W,F-43m,2.282173660120911,0.3803622766868185
Cu6Fe2,Pm-3n,2.115298945632084,0.2644123682040105
Cu6Ge7,R-3m,-19.41934097702351,-2.7741915681462155
Cu6In6,P-3m1,2.771240474617798,0.23093670621814985
Cu6In7,R-3m,5.144414841831193,0.3957242186023994
Cu6Ir2,I4/mmm,0.9178823003016987,0.11473528753771234
Cu6Ni2,Pm-3n,0.8371678672118925,0.10464598340148656
Cu6P6,P-3m1,1.7128148557588219,0.14273457131323516
Cu6Pt4,P-1,-1.1461651244620015,-0.11461651244620014
Cu6Pt4,P1,-1.1968743726813216,-0.11968743726813216
Cu6Pt5,P-1,-1.3433783650381699,-0.12212530591256089
Cu6Pt5,P1,-1.3095823245216014,-0.11905293859287286
Cu6Pt6,P-1,-1.4352411999359163,-0.11960343332799302
Cu6Pt6,P1,-1.1295328763563575,-0.09412773969636312
Cu6Rh2,Cmcm,0.33670353131411446,0.04208794141426431
Cu7As,Fm-3m,0.2018224780869673,0.025227809760870912
Cu7In,Fm-3m,0.3461958178706439,0.04327447723383049
Cu7In6,R-3m,0.7058797665660137,0.05429844358200105
Cu7Pt5,P1,-1.4467100719484507,-0.12055917266237089
Cu8Fe16,Fd-3m,7.802416000317578,0.32510066667989906
Cu8Ge,I4/mmm,-0.09056675296252337,-0.010062972551391484
Cu8In,I4/mmm,0.18233675055872922,0.02025963895096991
Cu8In16,Fd-3m,1.9079302663432856,0.07949709443097024
Cu8In16,P6_3/mmc,12.006251696768402,0.5002604873653501
Cu8Ir16,Fd-3m,10.952488459599948,0.4563536858166645
Cu8P4,I4_1/amd,0.5159961724574202,0.042999681038118354
Cu8Sb4,Pa-3,4.9733004138941865,0.4144417011578489
Cu8Sn,I4/mmm,0.08140388231413098,0.00904487581268122
Cu8Sn4,I4_1/amd,0.939529112796599,0.07829409273304992
Cu8Ta4,Pa-3,13.821288047120717,1.1517740039267264
Cu8Ta4,Pnma,1.7508176396305402,0.1459014699692117
CuAs7,Fm-3m,4.0880562955449165,0.5110070369431146
CuBr3,Imm2,-0.725425483812371,-0.18135637095309276
CuBr3,Pmm2,0.03158533414725895,0.007896333536814737
CuEu,Pm-3m,-0.31961482730878554,-0.15980741365439277
CuFe,F-43m,2.9908343053995745,1.4954171526997873
CuFe,Fm-3m,1.586125196774674,0.793062598387337
CuFe2,Fmmm,0.23850884842438802,0.07950294947479601
CuFe2,Immm,0.4037298228486037,0.13457660761620124
CuGa,F-43m,0.8889592205374406,0.4444796102687203
CuGa,P-6m2,-0.11006811172013631,-0.055034055860068154
CuGe,P4/mmm,0.5122815625873813,0.1597791906993984
CuGe3,P4/mmm,0.938611505627927,0.23465287640698174
CuGe5,P4/mmm,2.1904162335133925,0.36506937225223207
CuI,P-6m2,0.3843680600700348,0.1921840300350174
CuIn,F-43m,1.07655824996786,0.53827912498393
CuIn,Fm-3m,0.4826331184947046,0.2413165592473523
CuIn2,P-3m1,0.43232691197410844,0.14410897065803616
CuIn3,Fm-3m,0.8305006278418077,0.20762515696045192
CuIn3,R-3m,0.9012989260399351,0.22532473150998378
CuIn5,F-43m,2.0490323838494024,0.34150539730823376
CuIn7,Fm-3m,0.49301315487165986,0.06162664435895748
CuIr,F-43m,3.7979809731481224,1.8989904865740612
CuIr2,I4/mmm,0.776868619751049,0.258956206583683
CuIr3,Pm-3m,0.8444603757586222,0.21111509393965555
CuIr4,I4/mmm,2.6780459649855004,0.5356091929971001
CuK,P-6m2,1.1237511916340472,0.5618755958170236
CuK,Pm-3m,0.9563890688111698,0.4781945344055849
CuK,R-3m,1.0762691872334358,0.5381345936167179
CuK4,Im-3m,1.133155361260295,0.22663107225205897
CuMn,P4/mmm,1.3137670216600732,0.3284417554150183
CuMn2,I4/mmm,0.8739151778594341,0.29130505928647804
CuMn3,I4/mmm,1.0762576725347124,0.2690644181336781
CuMo,F-43m,3.995617320334441,1.9978086601672205
CuMo,P-6m2,0.7018586453098248,0.3509293226549124
CuMo2,P-3m1,0.6666792634951797,0.2222264211650599
CuNb,P4/mmm,0.4355275737021733,0.21776378685108666
CuNb3,R-3m,1.0698921456870494,0.26747303642176234
CuNi,F-43m,2.834726531050547,1.4173632655252735
CuNi,Fm-3m,1.3332007345801884,0.6666003672900942